LAMMPS (23 Jun 2022 - Update 1)
OMP_NUM_THREADS environment is not set. Defaulting to 1 thread. (src/comm.cpp:98)
  using 1 OpenMP thread(s) per MPI task
# AUTHOR: Joshua Kempfert
# DESCRIPTION: This script can be directly run. This script creates a single crystal, inserts a screw dislocation dipole,
#   and equilibrates. Some settings are found in in.disl_defaults. This file is very similar to in.run_disl_boundary

#   The crystal directions are:
#      x: [1 1 -2]
#      y: [1 1 1]
#      z: [1 -1 0]

#   This script outputs:
#       crystal.dump : Frame 0 - The created crystal
#                      Frame 1 - Crystal with the displacement field applied, but no minimization
#                      Frame 3 - After minimization

#       crystal.restart : restart file of simulation after equilibration is complete
#       thermo.csv : file with thermo quantities; see in.thermo for details
#       disl_capture_top.dump and disl_capture_bottom.dump: slice dumps of dislocations; see in.dump_disls for details

include in.disl_defaults # Check this file for more options. Those parameters can be pasted in here if you don't want to use that file.
# Properties that are loaded into in.run_stress_disl, in.run_disl_boundary, and in.run_disl_crystal for convenience.
# These are all index properties, meaning if a property is already defined before this is called, the new value will be ignored.
# If you would like to reassign a variable after this has been called, delete the variable first

variable element index "Al" # Al, Ni
variable potential index "Al99" # Al99, Al03, Al_winey, Al_sheng, Ni99, Ni_u3

variable equilibrium_temp index 100 # This temperature is targeted during equilibration and stress runs
variable equilibrate_drag index 2 # Drag is used during equilibration but disabled during stress runs

variable temp_seed index 5623 # Arbitrary

# These refer to the NPT damping constants
variable temp_damp_timesteps index 100
variable press_damp_timesteps index 1000

variable disl_capture_height index 10 # Total height of each slab (Lattice param units)
variable disl_capture_time index 2 # Time separating each dump output (ps)
variable disl_capture_dump_prop index "id type xs ys zs"

variable thermo_print_N index 10 # Timesteps separating thermo output from in.thermo

# Minimization variables (see in.minimize)
variable etol index 0
variable ftol index 0
variable maxiter index 5000
variable maxeval index 9999999

variable rotation_correction index 1  # Whether to change targeted stress values over time to maintain pure shear.
                                         # LAMMPS must be built with my modified fix_nh files for this to be enabled.

variable file_prefix string "../out/" # All output file names are appended to the end of this string.

# Minimum crystal sizes (lattice param units)

variable width_min equal 61.73#92.5 # eg 375 #61.73 # roughly 250
variable height_min equal 223 # roughly 900
variable thickness_min equal 4#12.7 # eg 9*sqrt(2)

# 4 rounds to 3*sqrt(2)

variable replicate_thickness equal 1 # should probably stop using this, can't guarantee that minimization results are equivalent

variable slip_index_x equal 1 # Slip plane indices
variable slip_index_y equal 1
variable slip_index_z equal -1

variable dislocation_burger equal $(sqrt(2)/2)
variable dislocation_burger equal 0.70710678118654757274

variable dynamics_enabled equal true # Whether to run equilibration
variable equilibrate_time equal 1000 # Equilibration time (ps)

variable restart_output_N equal 10000

# ---------

variable stress_enabled equal false

include in.element
# DESCRIPTION:
#   defines some useful quantities for different elements

# REQUIREMENTS:

# defined: element

jump in.element ${element}
jump in.element Al
    variable lattice_param equal 4.05
    variable pe_bulk equal -3.36
jump in.element end
include in.initialize
# DESCRIPTION: Contains some common, initial settings.

units		metal

boundary	p p p
atom_style	atomic

neighbor		0.3 bin
neigh_modify	delay 5

compute pe_atom all pe/atom
compute pe_atom_sum all reduce sum c_pe_atom

compute centro_atom all centro/atom fcc
compute centro_atom_sum all reduce sum c_centro_atom

thermo 50
thermo_modify lost warn flush yes

variable orient_xx equal 1
variable orient_yx equal 1
variable orient_zx equal -2

variable orient_xy equal 1
variable orient_yy equal 1
variable orient_zy equal 1

variable orient_xz equal 1
variable orient_yz equal -1
variable orient_zz equal 0

variable    repeat_x equal $(sqrt(v_orient_xx^2+v_orient_yx^2+v_orient_zx^2))
variable    repeat_x equal 2.4494897427831778813
variable    repeat_y equal $(sqrt(v_orient_xy^2+v_orient_yy^2+v_orient_zy^2))
variable    repeat_y equal 1.7320508075688771932
variable    repeat_z equal $(sqrt(v_orient_xz^2+v_orient_yz^2+v_orient_zz^2))
variable    repeat_z equal 1.4142135623730951455


variable atom_width equal $(ceil(v_width_min/v_repeat_x)*v_repeat_x)
variable atom_width equal 63.686733312362683535
variable atom_height equal $(ceil(v_height_min/v_repeat_y)*v_repeat_y)
variable atom_height equal 223.43455417638551808
variable atom_thickness equal $(ceil(v_thickness_min/v_repeat_z)*v_repeat_z)
variable atom_thickness equal 4.2426406871192998693


# arbitrary placeholders, box is remapped from read dump

lattice	fcc ${lattice_param} spacing 1 1 1
lattice	fcc 4.05 spacing 1 1 1
Lattice spacing in x,y,z = 4.05 4.05 4.05

region  box_region prism         $(-v_atom_width/2) $(v_atom_width/2)         $(-v_atom_height/2) $(v_atom_height/2)         $(-v_atom_thickness/2) $(v_atom_thickness/2)         0 0 0
region  box_region prism         -31.843366656181348873 $(v_atom_width/2)         $(-v_atom_height/2) $(v_atom_height/2)         $(-v_atom_thickness/2) $(v_atom_thickness/2)         0 0 0
region  box_region prism         -31.843366656181348873 31.843366656181348873         $(-v_atom_height/2) $(v_atom_height/2)         $(-v_atom_thickness/2) $(v_atom_thickness/2)         0 0 0
region  box_region prism         -31.843366656181348873 31.843366656181348873         -111.71727708819300062 $(v_atom_height/2)         $(-v_atom_thickness/2) $(v_atom_thickness/2)         0 0 0
region  box_region prism         -31.843366656181348873 31.843366656181348873         -111.71727708819300062 111.71727708819300062         $(-v_atom_thickness/2) $(v_atom_thickness/2)         0 0 0
region  box_region prism         -31.843366656181348873 31.843366656181348873         -111.71727708819300062 111.71727708819300062         -2.1213203435596499347 $(v_atom_thickness/2)         0 0 0
region  box_region prism         -31.843366656181348873 31.843366656181348873         -111.71727708819300062 111.71727708819300062         -2.1213203435596499347 2.1213203435596499347         0 0 0

create_box	2 box_region
Created triclinic box = (-128.96563 -452.45497 -8.5913474) to (128.96563 452.45497 8.5913474) with tilt (0 0 0)
  4 by 16 by 1 MPI processor grid

include in.potential
# DESCRIPTION: Contains the pair definitions for various potentials.

# REQUIREMENTS:

# defined: potential
# files: whichever corresponds to the potential

jump in.potential ${potential}
jump in.potential Al99
    pair_style eam/alloy
    pair_coeff * * ../potentials/Al99.eam.alloy Al Al
jump in.potential end

lattice	    fcc ${lattice_param}             orient x ${orient_xx} ${orient_yx} ${orient_zx}             orient y ${orient_xy} ${orient_yy} ${orient_zy}             orient z ${orient_xz} ${orient_yz} ${orient_zz}             spacing 1 1 1
lattice	    fcc 4.05             orient x ${orient_xx} ${orient_yx} ${orient_zx}             orient y ${orient_xy} ${orient_yy} ${orient_zy}             orient z ${orient_xz} ${orient_yz} ${orient_zz}             spacing 1 1 1
lattice	    fcc 4.05             orient x 1 ${orient_yx} ${orient_zx}             orient y ${orient_xy} ${orient_yy} ${orient_zy}             orient z ${orient_xz} ${orient_yz} ${orient_zz}             spacing 1 1 1
lattice	    fcc 4.05             orient x 1 1 ${orient_zx}             orient y ${orient_xy} ${orient_yy} ${orient_zy}             orient z ${orient_xz} ${orient_yz} ${orient_zz}             spacing 1 1 1
lattice	    fcc 4.05             orient x 1 1 -2             orient y ${orient_xy} ${orient_yy} ${orient_zy}             orient z ${orient_xz} ${orient_yz} ${orient_zz}             spacing 1 1 1
lattice	    fcc 4.05             orient x 1 1 -2             orient y 1 ${orient_yy} ${orient_zy}             orient z ${orient_xz} ${orient_yz} ${orient_zz}             spacing 1 1 1
lattice	    fcc 4.05             orient x 1 1 -2             orient y 1 1 ${orient_zy}             orient z ${orient_xz} ${orient_yz} ${orient_zz}             spacing 1 1 1
lattice	    fcc 4.05             orient x 1 1 -2             orient y 1 1 1             orient z ${orient_xz} ${orient_yz} ${orient_zz}             spacing 1 1 1
lattice	    fcc 4.05             orient x 1 1 -2             orient y 1 1 1             orient z 1 ${orient_yz} ${orient_zz}             spacing 1 1 1
lattice	    fcc 4.05             orient x 1 1 -2             orient y 1 1 1             orient z 1 -1 ${orient_zz}             spacing 1 1 1
lattice	    fcc 4.05             orient x 1 1 -2             orient y 1 1 1             orient z 1 -1 0             spacing 1 1 1
Lattice spacing in x,y,z = 4.05 4.05 4.05

create_atoms 1 box
Created 241488 atoms
  using lattice units in triclinic box = (-128.96563 -452.45497 -8.5913474) to (128.96563 452.45497 8.5913474) with tilt (0 0 0)
  create_atoms CPU = 0.003 seconds

thermo_style yaml
WARNING: New thermo_style command, previous thermo_modify settings will be lost (src/output.cpp:903)

include in.minimize
# Generic minimization routine

# REQUIREMENTS:

# defined: etol, ftol, maxiter, maxeval

#reset_timestep 0

minimize ${etol} ${ftol} ${maxiter} ${maxeval}
minimize 0 ${ftol} ${maxiter} ${maxeval}
minimize 0 0 ${maxiter} ${maxeval}
minimize 0 0 5000 ${maxeval}
minimize 0 0 5000 9999999
WARNING: Using 'neigh_modify every 1 delay 0 check yes' setting during minimization (src/min.cpp:187)
Neighbor list info ...
  update every 1 steps, delay 0 steps, check yes
  max neighbors/atom: 2000, page size: 100000
  master list distance cutoff = 6.58721
  ghost atom cutoff = 6.58721
  binsize = 3.293605, bins = 79 275 6
  2 neighbor lists, perpetual/occasional/extra = 1 1 0
  (1) pair eam/alloy, perpetual
      attributes: half, newton on
      pair build: half/bin/newton/tri
      stencil: half/bin/3d/tri
      bin: standard
  (2) compute centro/atom, occasional
      attributes: full, newton on
      pair build: full/bin/atomonly
      stencil: full/bin/3d
      bin: standard
Per MPI rank memory allocation (min/avg/max) = 5.97 | 5.985 | 5.987 Mbytes
---
keywords: ['Step', 'Temp', 'KinEng', 'PotEng', 'E_bond', 'E_angle', 'E_dihed', 'E_impro', 'E_vdwl', 'E_coul', 'E_long', 'Press', ]
data:
  - [0, 0, 0, -811399.677138471, 0, 0, 0, 0, -811399.677138471, 0, 0, 2.72691302579908, ]
  - [50, 0, 0, -811399.677138477, 0, 0, 0, 0, -811399.677138477, 0, 0, 2.72691302575423, ]
  - [100, 0, 0, -811399.677138477, 0, 0, 0, 0, -811399.677138477, 0, 0, 2.72691302576042, ]
  - [150, 0, 0, -811399.677138477, 0, 0, 0, 0, -811399.677138477, 0, 0, 2.7269130257538, ]
  - [200, 0, 0, -811399.677138477, 0, 0, 0, 0, -811399.677138477, 0, 0, 2.72691302574985, ]
  - [250, 0, 0, -811399.677138477, 0, 0, 0, 0, -811399.677138477, 0, 0, 2.72691302574424, ]
  - [300, 0, 0, -811399.677138477, 0, 0, 0, 0, -811399.677138477, 0, 0, 2.72691302575393, ]
  - [350, 0, 0, -811399.677138477, 0, 0, 0, 0, -811399.677138477, 0, 0, 2.72691302575544, ]
  - [400, 0, 0, -811399.677138477, 0, 0, 0, 0, -811399.677138477, 0, 0, 2.72691302575272, ]
  - [450, 0, 0, -811399.677138477, 0, 0, 0, 0, -811399.677138477, 0, 0, 2.72691302574867, ]
  - [500, 0, 0, -811399.677138477, 0, 0, 0, 0, -811399.677138477, 0, 0, 2.72691302574706, ]
  - [550, 0, 0, -811399.677138477, 0, 0, 0, 0, -811399.677138477, 0, 0, 2.72691302575275, ]
  - [600, 0, 0, -811399.677138477, 0, 0, 0, 0, -811399.677138477, 0, 0, 2.72691302575579, ]
  - [650, 0, 0, -811399.677138477, 0, 0, 0, 0, -811399.677138477, 0, 0, 2.726913025748, ]
  - [700, 0, 0, -811399.677138477, 0, 0, 0, 0, -811399.677138477, 0, 0, 2.72691302575485, ]
  - [750, 0, 0, -811399.677138477, 0, 0, 0, 0, -811399.677138477, 0, 0, 2.72691302574784, ]
  - [800, 0, 0, -811399.677138477, 0, 0, 0, 0, -811399.677138477, 0, 0, 2.72691302574405, ]
  - [850, 0, 0, -811399.677138477, 0, 0, 0, 0, -811399.677138477, 0, 0, 2.72691302575332, ]
  - [900, 0, 0, -811399.677138477, 0, 0, 0, 0, -811399.677138477, 0, 0, 2.72691302575284, ]
  - [950, 0, 0, -811399.677138477, 0, 0, 0, 0, -811399.677138477, 0, 0, 2.7269130257458, ]
  - [1000, 0, 0, -811399.677138477, 0, 0, 0, 0, -811399.677138477, 0, 0, 2.72691302575046, ]
  - [1050, 0, 0, -811399.677138477, 0, 0, 0, 0, -811399.677138477, 0, 0, 2.72691302575782, ]
  - [1100, 0, 0, -811399.677138477, 0, 0, 0, 0, -811399.677138477, 0, 0, 2.7269130257551, ]
  - [1150, 0, 0, -811399.677138477, 0, 0, 0, 0, -811399.677138477, 0, 0, 2.72691302575392, ]
  - [1200, 0, 0, -811399.677138477, 0, 0, 0, 0, -811399.677138477, 0, 0, 2.72691302575944, ]
  - [1250, 0, 0, -811399.677138477, 0, 0, 0, 0, -811399.677138477, 0, 0, 2.72691302575033, ]
  - [1300, 0, 0, -811399.677138477, 0, 0, 0, 0, -811399.677138477, 0, 0, 2.72691302575189, ]
  - [1350, 0, 0, -811399.677138477, 0, 0, 0, 0, -811399.677138477, 0, 0, 2.72691302575542, ]
  - [1400, 0, 0, -811399.677138477, 0, 0, 0, 0, -811399.677138477, 0, 0, 2.72691302574512, ]
  - [1450, 0, 0, -811399.677138477, 0, 0, 0, 0, -811399.677138477, 0, 0, 2.72691302575412, ]
  - [1500, 0, 0, -811399.677138477, 0, 0, 0, 0, -811399.677138477, 0, 0, 2.72691302574837, ]
  - [1550, 0, 0, -811399.677138477, 0, 0, 0, 0, -811399.677138477, 0, 0, 2.72691302575368, ]
  - [1600, 0, 0, -811399.677138477, 0, 0, 0, 0, -811399.677138477, 0, 0, 2.72691302575145, ]
  - [1650, 0, 0, -811399.677138477, 0, 0, 0, 0, -811399.677138477, 0, 0, 2.72691302575222, ]
  - [1700, 0, 0, -811399.677138477, 0, 0, 0, 0, -811399.677138477, 0, 0, 2.72691302574887, ]
  - [1750, 0, 0, -811399.677138477, 0, 0, 0, 0, -811399.677138477, 0, 0, 2.72691302575206, ]
  - [1800, 0, 0, -811399.677138477, 0, 0, 0, 0, -811399.677138477, 0, 0, 2.72691302574216, ]
  - [1850, 0, 0, -811399.677138477, 0, 0, 0, 0, -811399.677138477, 0, 0, 2.72691302574797, ]
  - [1900, 0, 0, -811399.677138477, 0, 0, 0, 0, -811399.677138477, 0, 0, 2.72691302575318, ]
  - [1950, 0, 0, -811399.677138477, 0, 0, 0, 0, -811399.677138477, 0, 0, 2.72691302574362, ]
  - [2000, 0, 0, -811399.677138477, 0, 0, 0, 0, -811399.677138477, 0, 0, 2.72691302575461, ]
  - [2050, 0, 0, -811399.677138477, 0, 0, 0, 0, -811399.677138477, 0, 0, 2.72691302574614, ]
  - [2100, 0, 0, -811399.677138477, 0, 0, 0, 0, -811399.677138477, 0, 0, 2.72691302575563, ]
  - [2150, 0, 0, -811399.677138477, 0, 0, 0, 0, -811399.677138477, 0, 0, 2.72691302575, ]
  - [2200, 0, 0, -811399.677138477, 0, 0, 0, 0, -811399.677138477, 0, 0, 2.72691302574603, ]
  - [2250, 0, 0, -811399.677138477, 0, 0, 0, 0, -811399.677138477, 0, 0, 2.72691302574817, ]
  - [2300, 0, 0, -811399.677138477, 0, 0, 0, 0, -811399.677138477, 0, 0, 2.72691302575033, ]
  - [2350, 0, 0, -811399.677138477, 0, 0, 0, 0, -811399.677138477, 0, 0, 2.72691302574717, ]
  - [2400, 0, 0, -811399.677138477, 0, 0, 0, 0, -811399.677138477, 0, 0, 2.7269130257528, ]
  - [2450, 0, 0, -811399.677138477, 0, 0, 0, 0, -811399.677138477, 0, 0, 2.72691302575011, ]
  - [2500, 0, 0, -811399.677138477, 0, 0, 0, 0, -811399.677138477, 0, 0, 2.72691302574941, ]
  - [2550, 0, 0, -811399.677138477, 0, 0, 0, 0, -811399.677138477, 0, 0, 2.72691302575057, ]
  - [2600, 0, 0, -811399.677138477, 0, 0, 0, 0, -811399.677138477, 0, 0, 2.72691302575644, ]
  - [2650, 0, 0, -811399.677138477, 0, 0, 0, 0, -811399.677138477, 0, 0, 2.72691302575573, ]
  - [2700, 0, 0, -811399.677138477, 0, 0, 0, 0, -811399.677138477, 0, 0, 2.72691302575156, ]
  - [2750, 0, 0, -811399.677138477, 0, 0, 0, 0, -811399.677138477, 0, 0, 2.7269130257497, ]
  - [2800, 0, 0, -811399.677138477, 0, 0, 0, 0, -811399.677138477, 0, 0, 2.72691302574848, ]
  - [2850, 0, 0, -811399.677138477, 0, 0, 0, 0, -811399.677138477, 0, 0, 2.72691302574412, ]
  - [2900, 0, 0, -811399.677138477, 0, 0, 0, 0, -811399.677138477, 0, 0, 2.7269130257474, ]
  - [2950, 0, 0, -811399.677138477, 0, 0, 0, 0, -811399.677138477, 0, 0, 2.72691302574321, ]
  - [3000, 0, 0, -811399.677138477, 0, 0, 0, 0, -811399.677138477, 0, 0, 2.72691302575737, ]
  - [3050, 0, 0, -811399.677138477, 0, 0, 0, 0, -811399.677138477, 0, 0, 2.72691302574293, ]
  - [3100, 0, 0, -811399.677138477, 0, 0, 0, 0, -811399.677138477, 0, 0, 2.72691302574837, ]
  - [3150, 0, 0, -811399.677138477, 0, 0, 0, 0, -811399.677138477, 0, 0, 2.72691302574875, ]
  - [3200, 0, 0, -811399.677138477, 0, 0, 0, 0, -811399.677138477, 0, 0, 2.7269130257485, ]
  - [3250, 0, 0, -811399.677138477, 0, 0, 0, 0, -811399.677138477, 0, 0, 2.72691302574408, ]
  - [3300, 0, 0, -811399.677138477, 0, 0, 0, 0, -811399.677138477, 0, 0, 2.7269130257433, ]
  - [3350, 0, 0, -811399.677138477, 0, 0, 0, 0, -811399.677138477, 0, 0, 2.72691302575545, ]
  - [3400, 0, 0, -811399.677138477, 0, 0, 0, 0, -811399.677138477, 0, 0, 2.72691302575796, ]
  - [3450, 0, 0, -811399.677138477, 0, 0, 0, 0, -811399.677138477, 0, 0, 2.72691302574716, ]
  - [3500, 0, 0, -811399.677138477, 0, 0, 0, 0, -811399.677138477, 0, 0, 2.7269130257428, ]
  - [3550, 0, 0, -811399.677138477, 0, 0, 0, 0, -811399.677138477, 0, 0, 2.72691302574789, ]
  - [3600, 0, 0, -811399.677138477, 0, 0, 0, 0, -811399.677138477, 0, 0, 2.72691302574552, ]
  - [3650, 0, 0, -811399.677138477, 0, 0, 0, 0, -811399.677138477, 0, 0, 2.72691302574607, ]
  - [3700, 0, 0, -811399.677138477, 0, 0, 0, 0, -811399.677138477, 0, 0, 2.72691302575414, ]
  - [3750, 0, 0, -811399.677138477, 0, 0, 0, 0, -811399.677138477, 0, 0, 2.72691302575335, ]
  - [3800, 0, 0, -811399.677138477, 0, 0, 0, 0, -811399.677138477, 0, 0, 2.72691302574301, ]
  - [3850, 0, 0, -811399.677138477, 0, 0, 0, 0, -811399.677138477, 0, 0, 2.72691302575209, ]
  - [3900, 0, 0, -811399.677138477, 0, 0, 0, 0, -811399.677138477, 0, 0, 2.72691302575216, ]
  - [3950, 0, 0, -811399.677138477, 0, 0, 0, 0, -811399.677138477, 0, 0, 2.7269130257526, ]
  - [4000, 0, 0, -811399.677138477, 0, 0, 0, 0, -811399.677138477, 0, 0, 2.72691302573977, ]
  - [4050, 0, 0, -811399.677138477, 0, 0, 0, 0, -811399.677138477, 0, 0, 2.72691302574699, ]
  - [4100, 0, 0, -811399.677138477, 0, 0, 0, 0, -811399.677138477, 0, 0, 2.72691302575531, ]
  - [4150, 0, 0, -811399.677138477, 0, 0, 0, 0, -811399.677138477, 0, 0, 2.72691302574809, ]
  - [4200, 0, 0, -811399.677138477, 0, 0, 0, 0, -811399.677138477, 0, 0, 2.72691302575075, ]
  - [4250, 0, 0, -811399.677138477, 0, 0, 0, 0, -811399.677138477, 0, 0, 2.72691302574147, ]
  - [4300, 0, 0, -811399.677138477, 0, 0, 0, 0, -811399.677138477, 0, 0, 2.72691302574676, ]
  - [4350, 0, 0, -811399.677138477, 0, 0, 0, 0, -811399.677138477, 0, 0, 2.72691302575057, ]
  - [4400, 0, 0, -811399.677138477, 0, 0, 0, 0, -811399.677138477, 0, 0, 2.72691302574631, ]
  - [4450, 0, 0, -811399.677138477, 0, 0, 0, 0, -811399.677138477, 0, 0, 2.72691302574979, ]
  - [4500, 0, 0, -811399.677138477, 0, 0, 0, 0, -811399.677138477, 0, 0, 2.72691302575191, ]
  - [4550, 0, 0, -811399.677138477, 0, 0, 0, 0, -811399.677138477, 0, 0, 2.72691302575112, ]
  - [4600, 0, 0, -811399.677138477, 0, 0, 0, 0, -811399.677138477, 0, 0, 2.72691302574805, ]
  - [4650, 0, 0, -811399.677138477, 0, 0, 0, 0, -811399.677138477, 0, 0, 2.7269130257449, ]
  - [4700, 0, 0, -811399.677138477, 0, 0, 0, 0, -811399.677138477, 0, 0, 2.72691302574476, ]
  - [4750, 0, 0, -811399.677138477, 0, 0, 0, 0, -811399.677138477, 0, 0, 2.72691302576225, ]
  - [4800, 0, 0, -811399.677138477, 0, 0, 0, 0, -811399.677138477, 0, 0, 2.72691302575171, ]
  - [4850, 0, 0, -811399.677138477, 0, 0, 0, 0, -811399.677138477, 0, 0, 2.72691302573871, ]
  - [4900, 0, 0, -811399.677138477, 0, 0, 0, 0, -811399.677138477, 0, 0, 2.72691302575331, ]
  - [4950, 0, 0, -811399.677138477, 0, 0, 0, 0, -811399.677138477, 0, 0, 2.72691302574133, ]
  - [5000, 0, 0, -811399.677138477, 0, 0, 0, 0, -811399.677138477, 0, 0, 2.72691302574502, ]
...
Loop time of 92.6728 on 64 procs for 5000 steps with 241488 atoms

99.9% CPU use with 64 MPI tasks x 1 OpenMP threads

Minimization stats:
  Stopping criterion = max iterations
  Energy initial, next-to-last, final = 
     -811399.677138471  -811399.677138477  -811399.677138477
  Force two-norm initial, final = 3.3463199e-10 1.7986212e-11
  Force max component initial, final = 8.9214261e-12 2.6566162e-13
  Final line search alpha, max atom move = 1 2.6566162e-13
  Iterations, force evaluations = 5000 10000

MPI task timing breakdown:
Section |  min time  |  avg time  |  max time  |%varavg| %total
---------------------------------------------------------------
Pair    | 56.099     | 63.788     | 88.265     |  72.8 | 68.83
Neigh   | 0          | 0          | 0          |   0.0 |  0.00
Comm    | 1.4301     | 12.518     | 31.601     | 270.4 | 13.51
Output  | 0.020511   | 0.021007   | 0.021501   |   0.2 |  0.02
Modify  | 0          | 0          | 0          |   0.0 |  0.00
Other   |            | 16.35      |            |       | 17.64

Nlocal:        3773.25 ave        3954 max        3696 min
Histogram: 13 22 5 12 0 1 2 5 1 3
Nghost:        5946.12 ave        6064 max        5489 min
Histogram: 6 2 0 0 0 1 2 1 15 37
Neighs:         147157 ave      154042 max      143928 min
Histogram: 13 3 22 13 1 0 3 0 6 3
FullNghs:            0 ave           0 max           0 min
Histogram: 64 0 0 0 0 0 0 0 0 0

Total # of neighbors = 9418032
Ave neighs/atom = 39
Neighbor list builds = 0
Dangerous builds = 0

#reset_timestep 0

fix press_relax all box/relax tri 0 # tri, iso, or aniso?

minimize ${etol} ${ftol} ${maxiter} ${maxeval}
minimize 0 ${ftol} ${maxiter} ${maxeval}
minimize 0 0 ${maxiter} ${maxeval}
minimize 0 0 5000 ${maxeval}
minimize 0 0 5000 9999999
WARNING: Using 'neigh_modify every 1 delay 0 check yes' setting during minimization (src/min.cpp:187)
Per MPI rank memory allocation (min/avg/max) = 5.97 | 5.985 | 5.987 Mbytes
---
keywords: ['Step', 'Temp', 'KinEng', 'PotEng', 'E_bond', 'E_angle', 'E_dihed', 'E_impro', 'E_vdwl', 'E_coul', 'E_long', 'Press', 'Volume', ]
data:
  - [5000, 0, 0, -811399.677138477, 0, 0, 0, 0, -811399.677138477, 0, 0, 2.72691302580378, 4010519.50650003, ]
  - [5002, 0, 0, -811399.677148034, 0, 0, 0, 0, -811399.677148034, 0, 0, -0.00024358049872313, 4010533.35677625, ]
...
Loop time of 0.0881809 on 64 procs for 2 steps with 241488 atoms

100.0% CPU use with 64 MPI tasks x 1 OpenMP threads

Minimization stats:
  Stopping criterion = linesearch alpha is zero
  Energy initial, next-to-last, final = 
     -811399.677138477  -811399.677148034  -811399.677148034
  Force two-norm initial, final = 11.82285 0.0010560755
  Force max component initial, final = 6.8259258 0.00060972576
  Final line search alpha, max atom move = 0.01025051 6.25e-06
  Iterations, force evaluations = 2 8

MPI task timing breakdown:
Section |  min time  |  avg time  |  max time  |%varavg| %total
---------------------------------------------------------------
Pair    | 0.053602   | 0.060075   | 0.080766   |   2.2 | 68.13
Neigh   | 0          | 0          | 0          |   0.0 |  0.00
Comm    | 0.0013274  | 0.011496   | 0.030095   |   7.6 | 13.04
Output  | 0          | 0          | 0          |   0.0 |  0.00
Modify  | 0          | 0          | 0          |   0.0 |  0.00
Other   |            | 0.01661    |            |       | 18.84

Nlocal:        3773.25 ave        3954 max        3696 min
Histogram: 13 25 1 13 0 1 2 5 1 3
Nghost:        5946.12 ave        6064 max        5487 min
Histogram: 6 2 0 0 0 1 2 1 13 39
Neighs:         147157 ave      154146 max      143669 min
Histogram: 13 0 26 6 7 2 1 0 6 3
FullNghs:            0 ave           0 max           0 min
Histogram: 64 0 0 0 0 0 0 0 0 0

Total # of neighbors = 9418032
Ave neighs/atom = 39
Neighbor list builds = 0
Dangerous builds = 0
unfix press_relax

#reset_timestep 0

minimize ${etol} ${ftol} ${maxiter} ${maxeval}
minimize 0 ${ftol} ${maxiter} ${maxeval}
minimize 0 0 ${maxiter} ${maxeval}
minimize 0 0 5000 ${maxeval}
minimize 0 0 5000 9999999
WARNING: Using 'neigh_modify every 1 delay 0 check yes' setting during minimization (src/min.cpp:187)
Per MPI rank memory allocation (min/avg/max) = 5.97 | 5.985 | 5.987 Mbytes
---
keywords: ['Step', 'Temp', 'KinEng', 'PotEng', 'E_bond', 'E_angle', 'E_dihed', 'E_impro', 'E_vdwl', 'E_coul', 'E_long', 'Press', ]
data:
  - [5002, 0, 0, -811399.677148034, 0, 0, 0, 0, -811399.677148034, 0, 0, -0.000243580445270657, ]
  - [5050, 0, 0, -811399.677148034, 0, 0, 0, 0, -811399.677148034, 0, 0, -0.000243580497146719, ]
  - [5100, 0, 0, -811399.677148034, 0, 0, 0, 0, -811399.677148034, 0, 0, -0.000243580491242328, ]
  - [5150, 0, 0, -811399.677148034, 0, 0, 0, 0, -811399.677148034, 0, 0, -0.000243580497771764, ]
  - [5200, 0, 0, -811399.677148034, 0, 0, 0, 0, -811399.677148034, 0, 0, -0.000243580494106338, ]
  - [5250, 0, 0, -811399.677148034, 0, 0, 0, 0, -811399.677148034, 0, 0, -0.000243580493509153, ]
  - [5300, 0, 0, -811399.677148034, 0, 0, 0, 0, -811399.677148034, 0, 0, -0.000243580495727561, ]
  - [5350, 0, 0, -811399.677148034, 0, 0, 0, 0, -811399.677148034, 0, 0, -0.000243580492464462, ]
  - [5400, 0, 0, -811399.677148034, 0, 0, 0, 0, -811399.677148034, 0, 0, -0.000243580495285337, ]
  - [5450, 0, 0, -811399.677148034, 0, 0, 0, 0, -811399.677148034, 0, 0, -0.000243580492927556, ]
  - [5500, 0, 0, -811399.677148034, 0, 0, 0, 0, -811399.677148034, 0, 0, -0.000243580493347493, ]
  - [5550, 0, 0, -811399.677148034, 0, 0, 0, 0, -811399.677148034, 0, 0, -0.000243580492810022, ]
  - [5600, 0, 0, -811399.677148034, 0, 0, 0, 0, -811399.677148034, 0, 0, -0.00024358049235493, ]
  - [5650, 0, 0, -811399.677148034, 0, 0, 0, 0, -811399.677148034, 0, 0, -0.000243580488948468, ]
  - [5700, 0, 0, -811399.677148034, 0, 0, 0, 0, -811399.677148034, 0, 0, -0.00024358049095613, ]
  - [5750, 0, 0, -811399.677148034, 0, 0, 0, 0, -811399.677148034, 0, 0, -0.000243580491263501, ]
  - [5800, 0, 0, -811399.677148034, 0, 0, 0, 0, -811399.677148034, 0, 0, -0.000243580494170702, ]
  - [5850, 0, 0, -811399.677148034, 0, 0, 0, 0, -811399.677148034, 0, 0, -0.000243580493860497, ]
  - [5900, 0, 0, -811399.677148034, 0, 0, 0, 0, -811399.677148034, 0, 0, -0.000243580491270691, ]
  - [5950, 0, 0, -811399.677148034, 0, 0, 0, 0, -811399.677148034, 0, 0, -0.000243580492430882, ]
  - [6000, 0, 0, -811399.677148034, 0, 0, 0, 0, -811399.677148034, 0, 0, -0.000243580495381283, ]
  - [6050, 0, 0, -811399.677148034, 0, 0, 0, 0, -811399.677148034, 0, 0, -0.000243580493015906, ]
  - [6100, 0, 0, -811399.677148034, 0, 0, 0, 0, -811399.677148034, 0, 0, -0.000243580497613936, ]
  - [6150, 0, 0, -811399.677148034, 0, 0, 0, 0, -811399.677148034, 0, 0, -0.000243580491754927, ]
  - [6200, 0, 0, -811399.677148034, 0, 0, 0, 0, -811399.677148034, 0, 0, -0.000243580494104244, ]
  - [6250, 0, 0, -811399.677148034, 0, 0, 0, 0, -811399.677148034, 0, 0, -0.000243580493391419, ]
  - [6300, 0, 0, -811399.677148034, 0, 0, 0, 0, -811399.677148034, 0, 0, -0.000243580492143466, ]
  - [6350, 0, 0, -811399.677148034, 0, 0, 0, 0, -811399.677148034, 0, 0, -0.000243580496742218, ]
  - [6400, 0, 0, -811399.677148034, 0, 0, 0, 0, -811399.677148034, 0, 0, -0.000243580492808621, ]
  - [6450, 0, 0, -811399.677148034, 0, 0, 0, 0, -811399.677148034, 0, 0, -0.000243580492060444, ]
  - [6500, 0, 0, -811399.677148034, 0, 0, 0, 0, -811399.677148034, 0, 0, -0.000243580493641144, ]
  - [6550, 0, 0, -811399.677148034, 0, 0, 0, 0, -811399.677148034, 0, 0, -0.000243580495870024, ]
  - [6600, 0, 0, -811399.677148034, 0, 0, 0, 0, -811399.677148034, 0, 0, -0.000243580494672856, ]
  - [6650, 0, 0, -811399.677148034, 0, 0, 0, 0, -811399.677148034, 0, 0, -0.000243580494034002, ]
  - [6700, 0, 0, -811399.677148034, 0, 0, 0, 0, -811399.677148034, 0, 0, -0.000243580494648462, ]
  - [6750, 0, 0, -811399.677148034, 0, 0, 0, 0, -811399.677148034, 0, 0, -0.000243580490311932, ]
  - [6800, 0, 0, -811399.677148034, 0, 0, 0, 0, -811399.677148034, 0, 0, -0.000243580495334258, ]
  - [6850, 0, 0, -811399.677148034, 0, 0, 0, 0, -811399.677148034, 0, 0, -0.000243580493320963, ]
  - [6900, 0, 0, -811399.677148034, 0, 0, 0, 0, -811399.677148034, 0, 0, -0.000243580491355338, ]
  - [6950, 0, 0, -811399.677148034, 0, 0, 0, 0, -811399.677148034, 0, 0, -0.0002435804990853, ]
  - [7000, 0, 0, -811399.677148034, 0, 0, 0, 0, -811399.677148034, 0, 0, -0.000243580499487468, ]
  - [7050, 0, 0, -811399.677148034, 0, 0, 0, 0, -811399.677148034, 0, 0, -0.000243580494411184, ]
  - [7100, 0, 0, -811399.677148034, 0, 0, 0, 0, -811399.677148034, 0, 0, -0.000243580492841346, ]
  - [7150, 0, 0, -811399.677148034, 0, 0, 0, 0, -811399.677148034, 0, 0, -0.000243580493784837, ]
  - [7200, 0, 0, -811399.677148034, 0, 0, 0, 0, -811399.677148034, 0, 0, -0.000243580501657298, ]
  - [7250, 0, 0, -811399.677148034, 0, 0, 0, 0, -811399.677148034, 0, 0, -0.000243580495380567, ]
  - [7300, 0, 0, -811399.677148034, 0, 0, 0, 0, -811399.677148034, 0, 0, -0.000243580497240981, ]
  - [7350, 0, 0, -811399.677148034, 0, 0, 0, 0, -811399.677148034, 0, 0, -0.000243580492618097, ]
  - [7400, 0, 0, -811399.677148034, 0, 0, 0, 0, -811399.677148034, 0, 0, -0.00024358049532776, ]
  - [7450, 0, 0, -811399.677148034, 0, 0, 0, 0, -811399.677148034, 0, 0, -0.000243580496906777, ]
  - [7500, 0, 0, -811399.677148034, 0, 0, 0, 0, -811399.677148034, 0, 0, -0.000243580497041945, ]
  - [7550, 0, 0, -811399.677148034, 0, 0, 0, 0, -811399.677148034, 0, 0, -0.000243580499586468, ]
  - [7600, 0, 0, -811399.677148034, 0, 0, 0, 0, -811399.677148034, 0, 0, -0.000243580497678437, ]
  - [7650, 0, 0, -811399.677148034, 0, 0, 0, 0, -811399.677148034, 0, 0, -0.000243580496843201, ]
  - [7700, 0, 0, -811399.677148034, 0, 0, 0, 0, -811399.677148034, 0, 0, -0.000243580495964238, ]
  - [7750, 0, 0, -811399.677148034, 0, 0, 0, 0, -811399.677148034, 0, 0, -0.000243580493575504, ]
  - [7800, 0, 0, -811399.677148034, 0, 0, 0, 0, -811399.677148034, 0, 0, -0.0002435804954776, ]
  - [7850, 0, 0, -811399.677148034, 0, 0, 0, 0, -811399.677148034, 0, 0, -0.000243580496234215, ]
  - [7900, 0, 0, -811399.677148034, 0, 0, 0, 0, -811399.677148034, 0, 0, -0.000243580494067233, ]
  - [7950, 0, 0, -811399.677148034, 0, 0, 0, 0, -811399.677148034, 0, 0, -0.000243580496451341, ]
  - [8000, 0, 0, -811399.677148034, 0, 0, 0, 0, -811399.677148034, 0, 0, -0.000243580494707521, ]
  - [8050, 0, 0, -811399.677148034, 0, 0, 0, 0, -811399.677148034, 0, 0, -0.00024358049149138, ]
  - [8100, 0, 0, -811399.677148034, 0, 0, 0, 0, -811399.677148034, 0, 0, -0.000243580493749503, ]
  - [8150, 0, 0, -811399.677148034, 0, 0, 0, 0, -811399.677148034, 0, 0, -0.000243580492767815, ]
  - [8200, 0, 0, -811399.677148034, 0, 0, 0, 0, -811399.677148034, 0, 0, -0.000243580494702199, ]
  - [8250, 0, 0, -811399.677148034, 0, 0, 0, 0, -811399.677148034, 0, 0, -0.00024358049477116, ]
  - [8300, 0, 0, -811399.677148034, 0, 0, 0, 0, -811399.677148034, 0, 0, -0.000243580491258633, ]
  - [8350, 0, 0, -811399.677148034, 0, 0, 0, 0, -811399.677148034, 0, 0, -0.000243580492142095, ]
  - [8400, 0, 0, -811399.677148034, 0, 0, 0, 0, -811399.677148034, 0, 0, -0.000243580492283709, ]
  - [8450, 0, 0, -811399.677148034, 0, 0, 0, 0, -811399.677148034, 0, 0, -0.00024358048921677, ]
  - [8500, 0, 0, -811399.677148034, 0, 0, 0, 0, -811399.677148034, 0, 0, -0.000243580489064086, ]
  - [8550, 0, 0, -811399.677148034, 0, 0, 0, 0, -811399.677148034, 0, 0, -0.000243580494588976, ]
  - [8600, 0, 0, -811399.677148034, 0, 0, 0, 0, -811399.677148034, 0, 0, -0.00024358049554642, ]
  - [8650, 0, 0, -811399.677148034, 0, 0, 0, 0, -811399.677148034, 0, 0, -0.000243580493918187, ]
  - [8700, 0, 0, -811399.677148034, 0, 0, 0, 0, -811399.677148034, 0, 0, -0.000243580493325604, ]
  - [8750, 0, 0, -811399.677148034, 0, 0, 0, 0, -811399.677148034, 0, 0, -0.00024358049782765, ]
  - [8800, 0, 0, -811399.677148034, 0, 0, 0, 0, -811399.677148034, 0, 0, -0.00024358049445675, ]
  - [8850, 0, 0, -811399.677148034, 0, 0, 0, 0, -811399.677148034, 0, 0, -0.000243580491511941, ]
  - [8900, 0, 0, -811399.677148034, 0, 0, 0, 0, -811399.677148034, 0, 0, -0.000243580494332887, ]
  - [8950, 0, 0, -811399.677148034, 0, 0, 0, 0, -811399.677148034, 0, 0, -0.000243580494181471, ]
  - [9000, 0, 0, -811399.677148034, 0, 0, 0, 0, -811399.677148034, 0, 0, -0.000243580491700163, ]
  - [9050, 0, 0, -811399.677148034, 0, 0, 0, 0, -811399.677148034, 0, 0, -0.000243580496726179, ]
  - [9100, 0, 0, -811399.677148034, 0, 0, 0, 0, -811399.677148034, 0, 0, -0.00024358049695368, ]
  - [9150, 0, 0, -811399.677148034, 0, 0, 0, 0, -811399.677148034, 0, 0, -0.000243580494094963, ]
  - [9200, 0, 0, -811399.677148034, 0, 0, 0, 0, -811399.677148034, 0, 0, -0.000243580492379967, ]
  - [9250, 0, 0, -811399.677148034, 0, 0, 0, 0, -811399.677148034, 0, 0, -0.000243580495600127, ]
  - [9300, 0, 0, -811399.677148034, 0, 0, 0, 0, -811399.677148034, 0, 0, -0.000243580494160442, ]
  - [9350, 0, 0, -811399.677148034, 0, 0, 0, 0, -811399.677148034, 0, 0, -0.00024358050065134, ]
  - [9400, 0, 0, -811399.677148034, 0, 0, 0, 0, -811399.677148034, 0, 0, -0.000243580493166043, ]
  - [9450, 0, 0, -811399.677148034, 0, 0, 0, 0, -811399.677148034, 0, 0, -0.000243580491861236, ]
  - [9500, 0, 0, -811399.677148034, 0, 0, 0, 0, -811399.677148034, 0, 0, -0.000243580493355104, ]
  - [9550, 0, 0, -811399.677148034, 0, 0, 0, 0, -811399.677148034, 0, 0, -0.000243580494838814, ]
  - [9600, 0, 0, -811399.677148034, 0, 0, 0, 0, -811399.677148034, 0, 0, -0.000243580495451554, ]
  - [9650, 0, 0, -811399.677148034, 0, 0, 0, 0, -811399.677148034, 0, 0, -0.000243580500758484, ]
  - [9700, 0, 0, -811399.677148034, 0, 0, 0, 0, -811399.677148034, 0, 0, -0.000243580495812931, ]
  - [9750, 0, 0, -811399.677148034, 0, 0, 0, 0, -811399.677148034, 0, 0, -0.000243580497508767, ]
  - [9800, 0, 0, -811399.677148034, 0, 0, 0, 0, -811399.677148034, 0, 0, -0.000243580499012077, ]
  - [9850, 0, 0, -811399.677148034, 0, 0, 0, 0, -811399.677148034, 0, 0, -0.000243580499164107, ]
  - [9900, 0, 0, -811399.677148034, 0, 0, 0, 0, -811399.677148034, 0, 0, -0.000243580493966435, ]
  - [9950, 0, 0, -811399.677148034, 0, 0, 0, 0, -811399.677148034, 0, 0, -0.000243580497883087, ]
  - [10000, 0, 0, -811399.677148034, 0, 0, 0, 0, -811399.677148034, 0, 0, -0.000243580497559617, ]
  - [10002, 0, 0, -811399.677148034, 0, 0, 0, 0, -811399.677148034, 0, 0, -0.000243580493860916, ]
...
Loop time of 96.3081 on 64 procs for 5000 steps with 241488 atoms

99.9% CPU use with 64 MPI tasks x 1 OpenMP threads

Minimization stats:
  Stopping criterion = max iterations
  Energy initial, next-to-last, final = 
     -811399.677148034  -811399.677148034  -811399.677148034
  Force two-norm initial, final = 2.6338691e-10 2.5157084e-11
  Force max component initial, final = 2.1637969e-12 1.4077628e-13
  Final line search alpha, max atom move = 1 1.4077628e-13
  Iterations, force evaluations = 5000 10000

MPI task timing breakdown:
Section |  min time  |  avg time  |  max time  |%varavg| %total
---------------------------------------------------------------
Pair    | 58.549     | 66.689     | 92.183     |  75.1 | 69.25
Neigh   | 0          | 0          | 0          |   0.0 |  0.00
Comm    | 1.373      | 12.698     | 32.185     | 274.2 | 13.18
Output  | 0.021471   | 0.021705   | 0.022418   |   0.1 |  0.02
Modify  | 0          | 0          | 0          |   0.0 |  0.00
Other   |            | 16.9       |            |       | 17.55

Nlocal:        3773.25 ave        3952 max        3696 min
Histogram: 13 23 1 15 0 1 4 3 1 3
Nghost:        5946.12 ave        6064 max        5487 min
Histogram: 6 2 0 0 0 1 0 3 15 37
Neighs:         147157 ave      154063 max      143675 min
Histogram: 13 0 24 5 10 2 3 0 4 3
FullNghs:            0 ave           0 max           0 min
Histogram: 64 0 0 0 0 0 0 0 0 0

Total # of neighbors = 9418032
Ave neighs/atom = 39
Neighbor list builds = 0
Dangerous builds = 0

write_dump all atom ${file_prefix}crystal.dump
write_dump all atom ../out/crystal.dump


variable slip_index_mag equal $(sqrt(v_slip_index_x^2+v_slip_index_y^2+v_slip_index_z^2))
variable slip_index_mag equal 1.7320508075688771932
variable slip_normal_x equal $((v_slip_index_x*v_orient_xx+v_slip_index_y*v_orient_yx+v_slip_index_z*v_orient_zx)/(v_slip_index_mag*v_repeat_x))
variable slip_normal_x equal 0.94280904158206113586
variable slip_normal_y equal $((v_slip_index_x*v_orient_xy+v_slip_index_y*v_orient_yy+v_slip_index_z*v_orient_zy)/(v_slip_index_mag*v_repeat_y))
variable slip_normal_y equal 0.33333333333333226012
variable slip_direction_angle equal $(atan2(v_slip_normal_y, v_slip_normal_x)+PI/2)
variable slip_direction_angle equal 1.91063323624901793

variable slip_separation_height equal $(v_atom_height/2)
variable slip_separation_height equal 111.71727708819300062
variable slip_separation equal $(v_slip_separation_height/abs(v_slip_normal_x))
variable slip_separation equal 118.49406630713697552

#dump debug all atom 250 ${file_prefix}debug.dump # DELETE

displace_atoms all screw_dipole 0.3 0 ${slip_direction_angle} $(v_dislocation_burger*v_lattice_param) $(v_slip_separation*v_lattice_param) 20000
displace_atoms all screw_dipole 0.3 0 1.91063323624902 $(v_dislocation_burger*v_lattice_param) $(v_slip_separation*v_lattice_param) 20000
displace_atoms all screw_dipole 0.3 0 1.91063323624902 2.8637824638055193738 $(v_slip_separation*v_lattice_param) 20000
displace_atoms all screw_dipole 0.3 0 1.91063323624902 2.8637824638055193738 479.90096854390486669 20000
Displacing atoms ...

write_dump all atom ${file_prefix}crystal.dump modify append yes
write_dump all atom ../out/crystal.dump modify append yes

include in.minimize
# Generic minimization routine

# REQUIREMENTS:

# defined: etol, ftol, maxiter, maxeval

#reset_timestep 0

minimize ${etol} ${ftol} ${maxiter} ${maxeval}
minimize 0 ${ftol} ${maxiter} ${maxeval}
minimize 0 0 ${maxiter} ${maxeval}
minimize 0 0 5000 ${maxeval}
minimize 0 0 5000 9999999
WARNING: Using 'neigh_modify every 1 delay 0 check yes' setting during minimization (src/min.cpp:187)
Per MPI rank memory allocation (min/avg/max) = 5.97 | 5.986 | 5.993 Mbytes
---
keywords: ['Step', 'Temp', 'KinEng', 'PotEng', 'E_bond', 'E_angle', 'E_dihed', 'E_impro', 'E_vdwl', 'E_coul', 'E_long', 'Press', ]
data:
  - [10002, 0, 0, -811357.721905288, 0, 0, 0, 0, -811357.721905288, 0, 0, 20.7874562397409, ]
  - [10050, 0, 0, -811361.096974607, 0, 0, 0, 0, -811361.096974607, 0, 0, 19.5091867970331, ]
  - [10100, 0, 0, -811361.179503775, 0, 0, 0, 0, -811361.179503775, 0, 0, 19.4251313697442, ]
  - [10150, 0, 0, -811361.303108936, 0, 0, 0, 0, -811361.303108936, 0, 0, 19.329819533879, ]
  - [10200, 0, 0, -811361.431658828, 0, 0, 0, 0, -811361.431658828, 0, 0, 19.2863920808542, ]
  - [10250, 0, 0, -811361.535858423, 0, 0, 0, 0, -811361.535858423, 0, 0, 19.2893219798113, ]
  - [10300, 0, 0, -811361.614406292, 0, 0, 0, 0, -811361.614406292, 0, 0, 19.2510014706949, ]
  - [10350, 0, 0, -811361.673567673, 0, 0, 0, 0, -811361.673567673, 0, 0, 19.2595025848242, ]
  - [10400, 0, 0, -811361.709534736, 0, 0, 0, 0, -811361.709534736, 0, 0, 19.2757327139756, ]
  - [10450, 0, 0, -811361.7318254, 0, 0, 0, 0, -811361.7318254, 0, 0, 19.2103095728017, ]
  - [10500, 0, 0, -811361.746591119, 0, 0, 0, 0, -811361.746591119, 0, 0, 19.2923102981118, ]
  - [10550, 0, 0, -811361.751176956, 0, 0, 0, 0, -811361.751176956, 0, 0, 19.3491668706987, ]
  - [10600, 0, 0, -811361.752523102, 0, 0, 0, 0, -811361.752523102, 0, 0, 19.3414915223268, ]
  - [10650, 0, 0, -811361.752900313, 0, 0, 0, 0, -811361.752900313, 0, 0, 19.3424806188021, ]
  - [10700, 0, 0, -811361.753032388, 0, 0, 0, 0, -811361.753032388, 0, 0, 19.3420308085668, ]
  - [10750, 0, 0, -811361.753099685, 0, 0, 0, 0, -811361.753099685, 0, 0, 19.3418595314227, ]
  - [10800, 0, 0, -811361.753134187, 0, 0, 0, 0, -811361.753134187, 0, 0, 19.3419899593181, ]
  - [10850, 0, 0, -811361.75315243, 0, 0, 0, 0, -811361.75315243, 0, 0, 19.3422305456174, ]
  - [10900, 0, 0, -811361.753164472, 0, 0, 0, 0, -811361.753164472, 0, 0, 19.3421292088098, ]
  - [10950, 0, 0, -811361.753174396, 0, 0, 0, 0, -811361.753174396, 0, 0, 19.3415685787688, ]
  - [11000, 0, 0, -811361.75318045, 0, 0, 0, 0, -811361.75318045, 0, 0, 19.341396181606, ]
  - [11050, 0, 0, -811361.753182941, 0, 0, 0, 0, -811361.753182941, 0, 0, 19.3414836502989, ]
  - [11100, 0, 0, -811361.753183704, 0, 0, 0, 0, -811361.753183704, 0, 0, 19.3413517707618, ]
  - [11150, 0, 0, -811361.753183886, 0, 0, 0, 0, -811361.753183886, 0, 0, 19.3413713965106, ]
  - [11200, 0, 0, -811361.75318392, 0, 0, 0, 0, -811361.75318392, 0, 0, 19.3413671408258, ]
  - [11237, 0, 0, -811361.753183919, 0, 0, 0, 0, -811361.753183919, 0, 0, 19.3413742246869, ]
...
Loop time of 24.0171 on 64 procs for 1235 steps with 241488 atoms

99.9% CPU use with 64 MPI tasks x 1 OpenMP threads

Minimization stats:
  Stopping criterion = linesearch alpha is zero
  Energy initial, next-to-last, final = 
     -811357.721905288  -811361.753183919  -811361.753183919
  Force two-norm initial, final = 5.7273785 5.2608081e-05
  Force max component initial, final = 1.0095485 6.5063994e-06
  Final line search alpha, max atom move = 0.5 3.2531997e-06
  Iterations, force evaluations = 1235 2471

MPI task timing breakdown:
Section |  min time  |  avg time  |  max time  |%varavg| %total
---------------------------------------------------------------
Pair    | 13.099     | 15.789     | 22.728     |  42.1 | 65.74
Neigh   | 0.17654    | 0.24082    | 0.28515    |   5.8 |  1.00
Comm    | 0.35324    | 3.2259     | 8.2616     | 141.8 | 13.43
Output  | 0.0056801  | 0.0058326  | 0.0061769  |   0.1 |  0.02
Modify  | 0          | 0          | 0          |   0.0 |  0.00
Other   |            | 4.755      |            |       | 19.80

Nlocal:        3773.25 ave        3900 max        3732 min
Histogram: 43 6 0 0 3 0 1 2 1 8
Nghost:        5999.48 ave        6185 max        5535 min
Histogram: 8 0 0 0 0 0 0 33 10 13
Neighs:         147140 ave      152688 max      145092 min
Histogram: 11 37 1 0 3 1 2 0 3 6
FullNghs:            0 ave           0 max           0 min
Histogram: 64 0 0 0 0 0 0 0 0 0

Total # of neighbors = 9416946
Ave neighs/atom = 38.995503
Neighbor list builds = 31
Dangerous builds = 0

#reset_timestep 0

fix press_relax all box/relax tri 0 # tri, iso, or aniso?

minimize ${etol} ${ftol} ${maxiter} ${maxeval}
minimize 0 ${ftol} ${maxiter} ${maxeval}
minimize 0 0 ${maxiter} ${maxeval}
minimize 0 0 5000 ${maxeval}
minimize 0 0 5000 9999999
WARNING: Using 'neigh_modify every 1 delay 0 check yes' setting during minimization (src/min.cpp:187)
Per MPI rank memory allocation (min/avg/max) = 5.97 | 5.986 | 5.993 Mbytes
---
keywords: ['Step', 'Temp', 'KinEng', 'PotEng', 'E_bond', 'E_angle', 'E_dihed', 'E_impro', 'E_vdwl', 'E_coul', 'E_long', 'Press', 'Volume', ]
data:
  - [11237, 0, 0, -811361.753183919, 0, 0, 0, 0, -811361.753183919, 0, 0, 19.341374224688, 4010533.35677625, ]
  - [11250, 0, 0, -811373.275862744, 0, 0, 0, 0, -811373.275862744, 0, 0, 5.05660371050701, 4010583.80457086, ]
  - [11261, 0, 0, -811373.276344374, 0, 0, 0, 0, -811373.276344374, 0, 0, -0.0981630047525605, 4010609.95113992, ]
...
Loop time of 0.786724 on 64 procs for 24 steps with 241488 atoms

99.9% CPU use with 64 MPI tasks x 1 OpenMP threads

Minimization stats:
  Stopping criterion = linesearch alpha is zero
  Energy initial, next-to-last, final = 
     -811361.753183919  -811373.276344374  -811373.276344374
  Force two-norm initial, final = 65878.171 2.3241763
  Force max component initial, final = 60963.508 2.1283022
  Final line search alpha, max atom move = 1.4338931e-09 3.0517578e-09
  Iterations, force evaluations = 24 76

MPI task timing breakdown:
Section |  min time  |  avg time  |  max time  |%varavg| %total
---------------------------------------------------------------
Pair    | 0.42551    | 0.49987    | 0.70072    |   7.0 | 63.54
Neigh   | 0.027442   | 0.038647   | 0.044334   |   2.3 |  4.91
Comm    | 0.010079   | 0.098514   | 0.26677    |  25.4 | 12.52
Output  | 9.7753e-05 | 0.00010155 | 0.00010783 |   0.0 |  0.01
Modify  | 0          | 0          | 0          |   0.0 |  0.00
Other   |            | 0.1496     |            |       | 19.02

Nlocal:        3773.25 ave        3900 max        3726 min
Histogram: 8 42 2 0 0 0 0 0 0 12
Nghost:        5999.44 ave        6185 max        5535 min
Histogram: 8 0 0 0 0 0 0 34 6 16
Neighs:         147140 ave      152640 max      145098 min
Histogram: 14 35 3 0 0 0 0 0 5 7
FullNghs:            0 ave           0 max           0 min
Histogram: 64 0 0 0 0 0 0 0 0 0

Total # of neighbors = 9416928
Ave neighs/atom = 38.995428
Neighbor list builds = 5
Dangerous builds = 2
unfix press_relax

#reset_timestep 0

minimize ${etol} ${ftol} ${maxiter} ${maxeval}
minimize 0 ${ftol} ${maxiter} ${maxeval}
minimize 0 0 ${maxiter} ${maxeval}
minimize 0 0 5000 ${maxeval}
minimize 0 0 5000 9999999
WARNING: Using 'neigh_modify every 1 delay 0 check yes' setting during minimization (src/min.cpp:187)
Per MPI rank memory allocation (min/avg/max) = 5.971 | 5.987 | 5.995 Mbytes
---
keywords: ['Step', 'Temp', 'KinEng', 'PotEng', 'E_bond', 'E_angle', 'E_dihed', 'E_impro', 'E_vdwl', 'E_coul', 'E_long', 'Press', ]
data:
  - [11261, 0, 0, -811373.276344374, 0, 0, 0, 0, -811373.276344374, 0, 0, -0.0981630047584724, ]
  - [11300, 0, 0, -811373.278492169, 0, 0, 0, 0, -811373.278492169, 0, 0, -0.0811594676287763, ]
  - [11350, 0, 0, -811373.278681576, 0, 0, 0, 0, -811373.278681576, 0, 0, -0.0812584298925497, ]
  - [11400, 0, 0, -811373.278721268, 0, 0, 0, 0, -811373.278721268, 0, 0, -0.0812371844147443, ]
  - [11450, 0, 0, -811373.27874026, 0, 0, 0, 0, -811373.27874026, 0, 0, -0.0812125087884827, ]
  - [11500, 0, 0, -811373.27875579, 0, 0, 0, 0, -811373.27875579, 0, 0, -0.0811680435708344, ]
  - [11550, 0, 0, -811373.27876218, 0, 0, 0, 0, -811373.27876218, 0, 0, -0.0811758679806208, ]
  - [11600, 0, 0, -811373.278768206, 0, 0, 0, 0, -811373.278768206, 0, 0, -0.0812118570753716, ]
  - [11650, 0, 0, -811373.278773153, 0, 0, 0, 0, -811373.278773153, 0, 0, -0.0811949886007223, ]
  - [11700, 0, 0, -811373.278774744, 0, 0, 0, 0, -811373.278774744, 0, 0, -0.0811573074575327, ]
  - [11750, 0, 0, -811373.278774984, 0, 0, 0, 0, -811373.278774984, 0, 0, -0.0811212541538696, ]
  - [11800, 0, 0, -811373.278775031, 0, 0, 0, 0, -811373.278775031, 0, 0, -0.0811345713159584, ]
  - [11850, 0, 0, -811373.278775038, 0, 0, 0, 0, -811373.278775038, 0, 0, -0.081135384642749, ]
  - [11900, 0, 0, -811373.278775035, 0, 0, 0, 0, -811373.278775035, 0, 0, -0.0811357855666998, ]
  - [11950, 0, 0, -811373.278775037, 0, 0, 0, 0, -811373.278775037, 0, 0, -0.0811345065054662, ]
  - [12000, 0, 0, -811373.278775037, 0, 0, 0, 0, -811373.278775037, 0, 0, -0.0811344636024478, ]
  - [12037, 0, 0, -811373.278775057, 0, 0, 0, 0, -811373.278775057, 0, 0, -0.0811351514245485, ]
...
Loop time of 14.7393 on 64 procs for 776 steps with 241488 atoms

99.9% CPU use with 64 MPI tasks x 1 OpenMP threads

Minimization stats:
  Stopping criterion = linesearch alpha is zero
  Energy initial, next-to-last, final = 
     -811373.276344374  -811373.278775057  -811373.278775057
  Force two-norm initial, final = 0.051168935 9.544109e-07
  Force max component initial, final = 0.0046093596 9.1583362e-08
  Final line search alpha, max atom move = 0.5 4.5791681e-08
  Iterations, force evaluations = 776 1553

MPI task timing breakdown:
Section |  min time  |  avg time  |  max time  |%varavg| %total
---------------------------------------------------------------
Pair    | 8.2813     | 9.9267     | 14.077     |  33.1 | 67.35
Neigh   | 0          | 0          | 0          |   0.0 |  0.00
Comm    | 0.23414    | 2.0419     | 5.2586     | 109.4 | 13.85
Output  | 0.003195   | 0.0033088  | 0.0034202  |   0.1 |  0.02
Modify  | 0          | 0          | 0          |   0.0 |  0.00
Other   |            | 2.767      |            |       | 18.78

Nlocal:        3773.25 ave        3900 max        3726 min
Histogram: 8 42 2 0 0 0 0 0 0 12
Nghost:        5999.44 ave        6185 max        5535 min
Histogram: 8 0 0 0 0 0 0 34 6 16
Neighs:         147140 ave      152640 max      145098 min
Histogram: 14 35 3 0 0 0 0 0 5 7
FullNghs:            0 ave           0 max           0 min
Histogram: 64 0 0 0 0 0 0 0 0 0

Total # of neighbors = 9416928
Ave neighs/atom = 38.995428
Neighbor list builds = 0
Dangerous builds = 0

replicate 1 1 ${replicate_thickness}
replicate 1 1 1
Replicating atoms ...
  triclinic box = (-128.96756 -452.45885 -8.5913396) to (128.96756 452.45885 8.5913396) with tilt (-0.038859338 0.095134687 0.020489037)
  4 by 16 by 1 MPI processor grid
  241488 atoms
  replicate CPU = 0.044 seconds

write_dump all atom ${file_prefix}crystal.dump modify append yes
write_dump all atom ../out/crystal.dump modify append yes

#undump debug  # DELETE

write_restart ${file_prefix}equilibrated.restart
write_restart ../out/equilibrated.restart
System init for write_restart ...

reset_timestep 0

if ${dynamics_enabled}==0 then quit
if 1==0 then quit

restart ${restart_output_N} ${file_prefix}equilibrated.restart ${file_prefix}equilibrated.restart
restart 10000 ${file_prefix}equilibrated.restart ${file_prefix}equilibrated.restart
restart 10000 ../out/equilibrated.restart ${file_prefix}equilibrated.restart
restart 10000 ../out/equilibrated.restart ../out/equilibrated.restart


include in.dynamics
# REQUIREMENTS:

# Intended to be used for dislocation slip simulations in STGB
#
# defined: equilibrium_temp, equilibrate_time
#          temp_seed, temp_damp_timesteps, press_damp_timesteps, equilibrate_drag
#          stress_enabled, stress_ramp_time
#          stress_xy, stress_xz, stress_yz (MPa)
#          disl_dump_prop
#          disl_capture_height, disl_capture_time
#          file_prefix


variable stress_units equal 10 # MPa to bars

variable is_continuation equal $(step>0)
variable is_continuation equal 0

include in.thermo
# REQUIREMENTS:

# defined: is_continuation, thermo_print_N, file_prefix

variable thermo_title string "title time,temp,press,pxx,pyy,pzz,pxy,pxz,pyz,lx,ly,lz,xy,xz,yz,pe,ke"
variable print_type string file
variable dump_append string no

if ${is_continuation} then     "variable print_type string append"     "variable thermo_title string ''"
if 0 then     "variable print_type string append"     "variable thermo_title string ''"


fix thermo_print all print ${thermo_print_N}     "$(step*dt),$(temp),$(press),$(pxx),$(pyy),$(pzz),$(pxy),$(pxz),$(pyz),$(lx),$(ly),$(lz),$(xy),$(xz),$(yz),$(pe),$(ke)" ${thermo_title}     ${print_type} ${file_prefix}thermo.csv screen no
fix thermo_print all print 10     "$(step*dt),$(temp),$(press),$(pxx),$(pyy),$(pzz),$(pxy),$(pxz),$(pyz),$(lx),$(ly),$(lz),$(xy),$(xz),$(yz),$(pe),$(ke)" ${thermo_title}     ${print_type} ${file_prefix}thermo.csv screen no
fix thermo_print all print 10     "$(step*dt),$(temp),$(press),$(pxx),$(pyy),$(pzz),$(pxy),$(pxz),$(pyz),$(lx),$(ly),$(lz),$(xy),$(xz),$(yz),$(pe),$(ke)" title time,temp,press,pxx,pyy,pzz,pxy,pxz,pyz,lx,ly,lz,xy,xz,yz,pe,ke     ${print_type} ${file_prefix}thermo.csv screen no
fix thermo_print all print 10     "$(step*dt),$(temp),$(press),$(pxx),$(pyy),$(pzz),$(pxy),$(pxz),$(pyz),$(lx),$(ly),$(lz),$(xy),$(xz),$(yz),$(pe),$(ke)" title time,temp,press,pxx,pyy,pzz,pxy,pxz,pyz,lx,ly,lz,xy,xz,yz,pe,ke     file ${file_prefix}thermo.csv screen no
fix thermo_print all print 10     "$(step*dt),$(temp),$(press),$(pxx),$(pyy),$(pzz),$(pxy),$(pxz),$(pyz),$(lx),$(ly),$(lz),$(xy),$(xz),$(yz),$(pe),$(ke)" title time,temp,press,pxx,pyy,pzz,pxy,pxz,pyz,lx,ly,lz,xy,xz,yz,pe,ke     file ../out/thermo.csv screen no
include in.dump_disls
# REQUIREMENTS:

# defined: disl_capture_height, disl_capture_time, disl_capture_dump_prop,
#          lattice_param, file_prefix, is_continuation

variable dump_append string no

if ${is_continuation} then     "variable dump_append string yes"
if 0 then     "variable dump_append string yes"



region      disl_capture_top_region block INF INF $(-v_disl_capture_height*v_lattice_param/2+ly/4) $(v_disl_capture_height*v_lattice_param/2+ly/4) INF INF units box
region      disl_capture_top_region block INF INF 205.97942382801528538 $(v_disl_capture_height*v_lattice_param/2+ly/4) INF INF units box
region      disl_capture_top_region block INF INF 205.97942382801528538 246.47942382801528538 INF INF units box
region      disl_capture_bottom_region block INF INF $(-v_disl_capture_height*v_lattice_param/2-ly/4) $(v_disl_capture_height*v_lattice_param/2-ly/4) INF INF units box
region      disl_capture_bottom_region block INF INF -246.47942382801528538 $(v_disl_capture_height*v_lattice_param/2-ly/4) INF INF units box
region      disl_capture_bottom_region block INF INF -246.47942382801528538 -205.97942382801528538 INF INF units box

region      disl_capture_region union 2 disl_capture_top_region disl_capture_bottom_region
group       disl_capture_group region disl_capture_region
21216 atoms in group disl_capture_group

dump        disl_capture_dump disl_capture_group custom $(floor(v_disl_capture_time/dt)) ${file_prefix}disl_capture.dump ${disl_capture_dump_prop}
dump        disl_capture_dump disl_capture_group custom 2000 ${file_prefix}disl_capture.dump ${disl_capture_dump_prop}
dump        disl_capture_dump disl_capture_group custom 2000 ../out/disl_capture.dump ${disl_capture_dump_prop}
dump        disl_capture_dump disl_capture_group custom 2000 ../out/disl_capture.dump id type xs ys zs
dump_modify disl_capture_dump append ${dump_append}
dump_modify disl_capture_dump append no



variable temp_damp equal $(v_temp_damp_timesteps*dt)
variable temp_damp equal 0.10000000000000000555
variable press_damp equal $(v_press_damp_timesteps*dt)
variable press_damp equal 1

variable rotation_correction_flag string ""

if ${rotation_correction} then     "variable rotation_correction_flag string rotate_corr"
if 1 then     "variable rotation_correction_flag string rotate_corr"
variable rotation_correction_flag string rotate_corr

if ${equilibrate_time}<=0 then     "jump in.dynamics equilibrate_end"
if 1000<=0 then     "jump in.dynamics equilibrate_end"
label equilibrate_start
    velocity all create ${equilibrium_temp} ${temp_seed}
    velocity all create 100 ${temp_seed}
    velocity all create 100 5623

    fix integrate all npt temp ${equilibrium_temp} ${equilibrium_temp} ${temp_damp}         x 0 0 ${press_damp}         y 0 0 ${press_damp}         z 0 0 ${press_damp}         xy 0 0 ${press_damp}         xz 0 0 ${press_damp}         yz 0 0 ${press_damp}         drag ${equilibrate_drag}
    fix integrate all npt temp 100 ${equilibrium_temp} ${temp_damp}         x 0 0 ${press_damp}         y 0 0 ${press_damp}         z 0 0 ${press_damp}         xy 0 0 ${press_damp}         xz 0 0 ${press_damp}         yz 0 0 ${press_damp}         drag ${equilibrate_drag}
    fix integrate all npt temp 100 100 ${temp_damp}         x 0 0 ${press_damp}         y 0 0 ${press_damp}         z 0 0 ${press_damp}         xy 0 0 ${press_damp}         xz 0 0 ${press_damp}         yz 0 0 ${press_damp}         drag ${equilibrate_drag}
    fix integrate all npt temp 100 100 0.1         x 0 0 ${press_damp}         y 0 0 ${press_damp}         z 0 0 ${press_damp}         xy 0 0 ${press_damp}         xz 0 0 ${press_damp}         yz 0 0 ${press_damp}         drag ${equilibrate_drag}
    fix integrate all npt temp 100 100 0.1         x 0 0 1         y 0 0 ${press_damp}         z 0 0 ${press_damp}         xy 0 0 ${press_damp}         xz 0 0 ${press_damp}         yz 0 0 ${press_damp}         drag ${equilibrate_drag}
    fix integrate all npt temp 100 100 0.1         x 0 0 1         y 0 0 1         z 0 0 ${press_damp}         xy 0 0 ${press_damp}         xz 0 0 ${press_damp}         yz 0 0 ${press_damp}         drag ${equilibrate_drag}
    fix integrate all npt temp 100 100 0.1         x 0 0 1         y 0 0 1         z 0 0 1         xy 0 0 ${press_damp}         xz 0 0 ${press_damp}         yz 0 0 ${press_damp}         drag ${equilibrate_drag}
    fix integrate all npt temp 100 100 0.1         x 0 0 1         y 0 0 1         z 0 0 1         xy 0 0 1         xz 0 0 ${press_damp}         yz 0 0 ${press_damp}         drag ${equilibrate_drag}
    fix integrate all npt temp 100 100 0.1         x 0 0 1         y 0 0 1         z 0 0 1         xy 0 0 1         xz 0 0 1         yz 0 0 ${press_damp}         drag ${equilibrate_drag}
    fix integrate all npt temp 100 100 0.1         x 0 0 1         y 0 0 1         z 0 0 1         xy 0 0 1         xz 0 0 1         yz 0 0 1         drag ${equilibrate_drag}
    fix integrate all npt temp 100 100 0.1         x 0 0 1         y 0 0 1         z 0 0 1         xy 0 0 1         xz 0 0 1         yz 0 0 1         drag 2

    run $(ceil(v_equilibrate_time/dt))
    run 1000000
Per MPI rank memory allocation (min/avg/max) = 5.213 | 5.468 | 6.188 Mbytes
---
keywords: ['Step', 'Temp', 'KinEng', 'PotEng', 'E_bond', 'E_angle', 'E_dihed', 'E_impro', 'E_vdwl', 'E_coul', 'E_long', 'Press', 'Volume', ]
data:
  - [0, 100, 3121.4644635615, -811373.278775058, 0, 0, 0, 0, -811373.278775058, 0, 0, 831.236639456591, 4010609.95113992, ]
  - [50, 32.056091109006, 1000.61949237452, -809231.939636993, 0, 0, 0, 0, -809231.939636993, 0, 0, -737.809765399407, 4020636.08363144, ]
  - [100, 58.1197762159135, 1814.18816088121, -810000.254946041, 0, 0, 0, 0, -810000.254946041, 0, 0, 164.255801689382, 4015245.92642905, ]
  - [150, 39.8394085410344, 1243.57298010147, -809385.372195506, 0, 0, 0, 0, -809385.372195506, 0, 0, 333.440090107152, 4015667.60766114, ]
  - [200, 48.7654649009694, 1522.19665737432, -809617.805317234, 0, 0, 0, 0, -809617.805317234, 0, 0, -321.986217393865, 4018476.70402181, ]
  - [250, 51.9714294075603, 1622.26970016195, -809671.527267768, 0, 0, 0, 0, -809671.527267768, 0, 0, 459.710960834231, 4014507.13560005, ]
  - [300, 55.5107765736127, 1732.74916419234, -809736.376615449, 0, 0, 0, 0, -809736.376615449, 0, 0, -389.604487968147, 4018898.68391123, ]
  - [350, 58.8814860997122, 1837.96466421942, -809795.770559082, 0, 0, 0, 0, -809795.770559082, 0, 0, 201.520513773643, 4015659.72150016, ]
  - [400, 54.2209843732182, 1692.48875900324, -809604.354286569, 0, 0, 0, 0, -809604.354286569, 0, 0, -90.4419079930436, 4017620.65958993, ]
  - [450, 55.6562214991984, 1737.28917585856, -809602.288160525, 0, 0, 0, 0, -809602.288160525, 0, 0, -36.9888713677435, 4017244.26381376, ]
  - [500, 56.466090616555, 1762.5689525582, -809580.846835019, 0, 0, 0, 0, -809580.846835019, 0, 0, 155.395988969914, 4016595.38050261, ]
  - [550, 57.8605035187058, 1806.09505577415, -809577.670578614, 0, 0, 0, 0, -809577.670578614, 0, 0, -193.938721469183, 4018248.04152577, ]
  - [600, 59.1136981765814, 1845.21308167899, -809569.879092246, 0, 0, 0, 0, -809569.879092246, 0, 0, 215.521016612053, 4016392.81742072, ]
  - [650, 59.5717625905026, 1859.51139957976, -809537.519753685, 0, 0, 0, 0, -809537.519753685, 0, 0, -219.859396131019, 4018543.94297918, ]
  - [700, 58.9461639375894, 1839.98355994456, -809470.9504862, 0, 0, 0, 0, -809470.9504862, 0, 0, 190.091222639917, 4016706.17749217, ]
  - [750, 61.7613522725766, 1927.85866340351, -809511.990029973, 0, 0, 0, 0, -809511.990029973, 0, 0, -131.496046311924, 4018363.27569866, ]
  - [800, 60.7894396781303, 1897.52075715099, -809434.765191346, 0, 0, 0, 0, -809434.765191346, 0, 0, 65.8852981369811, 4017479.50792813, ]
  - [850, 62.6140626316442, 1954.47571423891, -809444.816641346, 0, 0, 0, 0, -809444.816641346, 0, 0, 9.5224923225963, 4017870.22517891, ]
  - [900, 63.5066756995532, 1982.3383139508, -809425.836964305, 0, 0, 0, 0, -809425.836964305, 0, 0, -85.1558246832376, 4018378.57222391, ]
  - [950, 63.3717593581002, 1978.12694829681, -809374.824296899, 0, 0, 0, 0, -809374.824296899, 0, 0, 135.043297870962, 4017453.59920979, ]
  - [1000, 64.58638890165, 2016.04117786263, -809366.044267191, 0, 0, 0, 0, -809366.044267191, 0, 0, -147.339923552582, 4018919.65841678, ]
  - [1050, 64.8910207137593, 2025.55015162233, -809328.925201304, 0, 0, 0, 0, -809328.925201304, 0, 0, 145.052523628422, 4017587.91063588, ]
  - [1100, 66.1701521018569, 2065.47778334406, -809322.38799368, 0, 0, 0, 0, -809322.38799368, 0, 0, -106.875652466226, 4018888.49260433, ]
  - [1150, 67.1076816441283, 2094.74243484145, -809305.299428721, 0, 0, 0, 0, -809305.299428721, 0, 0, 42.5815915734468, 4018256.66495754, ]
  - [1200, 68.0703742640047, 2124.79254286422, -809289.16852222, 0, 0, 0, 0, -809289.16852222, 0, 0, 5.84369878238394, 4018497.99174889, ]
  - [1250, 68.7067805095129, 2144.65773766164, -809263.044620338, 0, 0, 0, 0, -809263.044620338, 0, 0, -67.9117900160787, 4018999.86404578, ]
  - [1300, 68.8411494198273, 2148.85201544718, -809221.454127939, 0, 0, 0, 0, -809221.454127939, 0, 0, 97.5609407052485, 4018296.49015826, ]
  - [1350, 69.2548814276916, 2161.76651304705, -809188.77678824, 0, 0, 0, 0, -809188.77678824, 0, 0, -95.4316830432489, 4019328.53140738, ]
  - [1400, 70.8958884458487, 2212.98996396337, -809194.598491773, 0, 0, 0, 0, -809194.598491773, 0, 0, 79.1787982082742, 4018577.91697265, ]
  - [1450, 70.8827223206766, 2212.5789880449, -809149.20225857, 0, 0, 0, 0, -809149.20225857, 0, 0, -47.7792797462095, 4019286.20956108, ]
  - [1500, 72.7055738167642, 2269.47864971877, -809161.234727988, 0, 0, 0, 0, -809161.234727988, 0, 0, 10.0034315569172, 4019056.02534609, ]
  - [1550, 72.1448304177743, 2251.97524378753, -809099.326384302, 0, 0, 0, 0, -809099.326384302, 0, 0, 17.2644014222198, 4019198.02602489, ]
  - [1600, 73.4955689508675, 2294.13806709367, -809097.260840473, 0, 0, 0, 0, -809097.260840473, 0, 0, -38.5892866605098, 4019492.46527422, ]
  - [1650, 73.8417878359388, 2304.94516655731, -809064.250551073, 0, 0, 0, 0, -809064.250551073, 0, 0, 65.6295546902502, 4019132.41389802, ]
  - [1700, 74.4453579556235, 2323.78539335594, -809039.645367881, 0, 0, 0, 0, -809039.645367881, 0, 0, -67.6590316015585, 4019874.89268792, ]
  - [1750, 75.7228971712973, 2363.66332598126, -809036.46752133, 0, 0, 0, 0, -809036.46752133, 0, 0, 73.1332111280423, 4019209.1112997, ]
  - [1800, 75.5751680006581, 2359.05201241744, -808989.161551254, 0, 0, 0, 0, -808989.161551254, 0, 0, -56.2972826831598, 4020031.74232803, ]
  - [1850, 77.348137336747, 2414.3946201933, -809002.13905161, 0, 0, 0, 0, -809002.13905161, 0, 0, 32.4366193694087, 4019570.27360509, ]
  - [1900, 77.1181696671122, 2407.21626110797, -808953.270159005, 0, 0, 0, 0, -808953.270159005, 0, 0, -3.26680782717167, 4019948.18091091, ]
  - [1950, 78.5171350826592, 2450.88446941179, -808955.467912082, 0, 0, 0, 0, -808955.467912082, 0, 0, -25.1778239354698, 4020071.98225654, ]
  - [2000, 78.7925969643823, 2459.48291416043, -808923.293597885, 0, 0, 0, 0, -808923.293597885, 0, 0, 52.1662336125531, 4019783.71411466, ]
  - [2050, 79.4346870016155, 2479.52552649673, -808902.895242835, 0, 0, 0, 0, -808902.895242835, 0, 0, -69.3141926142205, 4020501.6906619, ]
  - [2100, 80.2803227635187, 2505.92174629571, -808889.251604193, 0, 0, 0, 0, -808889.251604193, 0, 0, 69.1965674764381, 4019840.72446799, ]
  - [2150, 81.0105386551247, 2528.71517585947, -808872.663213423, 0, 0, 0, 0, -808872.663213423, 0, 0, -71.8171578882634, 4020671.90908863, ]
  - [2200, 81.5407611325659, 2545.26588207061, -808850.433400615, 0, 0, 0, 0, -808850.433400615, 0, 0, 54.5125156044113, 4020127.43298735, ]
  - [2250, 81.8963922153249, 2556.36677994031, -808823.261343206, 0, 0, 0, 0, -808823.261343206, 0, 0, -33.0937879500633, 4020632.34314889, ]
  - [2300, 82.5244094183288, 2575.97011375713, -808805.139919828, 0, 0, 0, 0, -808805.139919828, 0, 0, 11.3940713280216, 4020527.59119744, ]
  - [2350, 82.9785799979724, 2590.14688700466, -808782.147841212, 0, 0, 0, 0, -808782.147841212, 0, 0, 16.1678748045726, 4020571.40733213, ]
  - [2400, 83.7962237344995, 2615.66934567889, -808771.105674295, 0, 0, 0, 0, -808771.105674295, 0, 0, -35.0783876886765, 4020884.35910469, ]
  - [2450, 84.3451306860354, 2632.8032811091, -808752.318485604, 0, 0, 0, 0, -808752.318485604, 0, 0, 52.3432728027859, 4020551.03904194, ]
  - [2500, 85.0797449327799, 2655.73400376549, -808739.946232129, 0, 0, 0, 0, -808739.946232129, 0, 0, -61.2650776462288, 4021164.27814383, ]
  - [2550, 85.5317238621184, 2669.84236542758, -808719.376065188, 0, 0, 0, 0, -808719.376065188, 0, 0, 54.4645460965085, 4020690.27716162, ]
  - [2600, 86.1371940026706, 2688.74190070239, -808704.183178715, 0, 0, 0, 0, -808704.183178715, 0, 0, -41.8297772520213, 4021233.01821881, ]
  - [2650, 86.5628827941227, 2702.02962505293, -808684.149660313, 0, 0, 0, 0, -808684.149660313, 0, 0, 18.3751338416848, 4020994.96205984, ]
  - [2700, 87.5352204681853, 2732.38080001462, -808681.779264078, 0, 0, 0, 0, -808681.779264078, 0, 0, -1.27652977307328, 4021166.64539756, ]
  - [2750, 87.238534808022, 2723.11986256414, -808640.471585153, 0, 0, 0, 0, -808640.471585153, 0, 0, -17.3121462127569, 4021328.28763526, ]
  - [2800, 88.3387660434663, 2757.46318959553, -808643.468030789, 0, 0, 0, 0, -808643.468030789, 0, 0, 30.1308813897575, 4021146.55467501, ]
  - [2850, 88.6693002606483, 2767.78069772478, -808622.984322551, 0, 0, 0, 0, -808622.984322551, 0, 0, -34.1936407223874, 4021544.97267077, ]
  - [2900, 89.1173999239511, 2781.76796947612, -808607.077647866, 0, 0, 0, 0, -808607.077647866, 0, 0, 29.6288725720486, 4021285.08510358, ]
  - [2950, 89.807885742642, 2803.32123893249, -808599.415341852, 0, 0, 0, 0, -808599.415341852, 0, 0, -22.3087609524195, 4021591.96969975, ]
  - [3000, 89.6037339208234, 2796.9487123627, -808564.555929863, 0, 0, 0, 0, -808564.555929863, 0, 0, 13.3024427650831, 4021510.1027305, ]
  - [3050, 90.62923545873, 2828.95937844173, -808568.539078261, 0, 0, 0, 0, -808568.539078261, 0, 0, -3.06096831970209, 4021624.52417022, ]
  - [3100, 90.7129614686472, 2831.57285608806, -808544.137889572, 0, 0, 0, 0, -808544.137889572, 0, 0, 5.48370480766567, 4021701.45441574, ]
  - [3150, 91.6415030067445, 2860.55695022917, -808546.656997848, 0, 0, 0, 0, -808546.656997848, 0, 0, -3.92468547648408, 4021739.10888256, ]
  - [3200, 91.5489496931202, 2857.66793143454, -808518.168063913, 0, 0, 0, 0, -808518.168063913, 0, 0, 4.173952755246, 4021797.19353273, ]
  - [3250, 92.194427889077, 2877.81630394137, -808513.153660597, 0, 0, 0, 0, -808513.153660597, 0, 0, -2.90706694496715, 4021875.87970582, ]
  - [3300, 92.4565598523716, 2885.99866002325, -808497.204881799, 0, 0, 0, 0, -808497.204881799, 0, 0, 4.62139566438343, 4021879.78363925, ]
  - [3350, 93.1067640274195, 2906.29455228796, -808493.759876657, 0, 0, 0, 0, -808493.759876657, 0, 0, -2.72558352190102, 4021986.92765207, ]
  - [3400, 93.0604592753929, 2904.84916590851, -808469.658566217, 0, 0, 0, 0, -808469.658566217, 0, 0, -0.0999625547899509, 4022001.56931707, ]
  - [3450, 93.8297624845235, 2928.86269219856, -808471.648734678, 0, 0, 0, 0, -808471.648734678, 0, 0, 7.5138458593187, 4022033.93304026, ]
  - [3500, 93.8880792180429, 2930.68302831168, -808451.97240398, 0, 0, 0, 0, -808451.97240398, 0, 0, -9.96017572662885, 4022146.98167738, ]
  - [3550, 94.3641262304675, 2945.54266663436, -808446.263448582, 0, 0, 0, 0, -808446.263448582, 0, 0, 8.767989122132, 4022103.36415479, ]
  - [3600, 94.9805170180927, 2964.78308602675, -808445.309482076, 0, 0, 0, 0, -808445.309482076, 0, 0, -12.6798335073001, 4022249.58356678, ]
  - [3650, 94.8765947732229, 2961.5391900834, -808423.042261143, 0, 0, 0, 0, -808423.042261143, 0, 0, 9.79199493257068, 4022203.64889263, ]
  - [3700, 95.4167524425149, 2978.40001977755, -808421.213922409, 0, 0, 0, 0, -808421.213922409, 0, 0, -9.40562801857804, 4022308.92297089, ]
  - [3750, 95.5998315582751, 2984.11476931621, -808409.354393353, 0, 0, 0, 0, -808409.354393353, 0, 0, 7.98992975681969, 4022282.88297427, ]
  - [3800, 95.7143729751703, 2987.69013894065, -808395.597289327, 0, 0, 0, 0, -808395.597289327, 0, 0, -6.80508309726449, 4022397.77511664, ]
  - [3850, 96.1920865203391, 3002.60179749072, -808393.858541526, 0, 0, 0, 0, -808393.858541526, 0, 0, 0.128993310285147, 4022370.47042109, ]
  - [3900, 96.6929862023742, 3018.23720306353, -808393.94987775, 0, 0, 0, 0, -808393.94987775, 0, 0, 2.73076963128317, 4022409.2903898, ]
  - [3950, 96.3617178279363, 3007.89677847644, -808368.551222031, 0, 0, 0, 0, -808368.551222031, 0, 0, -10.3504851132421, 4022503.50982406, ]
  - [4000, 96.9978595153958, 3027.75371518839, -808373.762987665, 0, 0, 0, 0, -808373.762987665, 0, 0, 14.0563534704071, 4022409.70806642, ]
  - [4050, 96.8277005373896, 3022.44226315836, -808354.624689881, 0, 0, 0, 0, -808354.624689881, 0, 0, -14.1513141870945, 4022586.39223029, ]
  - [4100, 97.328441798865, 3038.07272368971, -808357.129546333, 0, 0, 0, 0, -808357.129546333, 0, 0, 11.8872765898268, 4022493.62864235, ]
  - [4150, 97.5632191926597, 3045.40121660548, -808351.676364811, 0, 0, 0, 0, -808351.676364811, 0, 0, -1.68413742515433, 4022591.05324809, ]
  - [4200, 97.7879143440402, 3052.41499590718, -808346.624655557, 0, 0, 0, 0, -808346.624655557, 0, 0, -11.1421806207713, 4022635.72761856, ]
  - [4250, 97.6033097564148, 3046.65262930634, -808329.546649866, 0, 0, 0, 0, -808329.546649866, 0, 0, 22.0317102673686, 4022554.25269078, ]
  - [4300, 97.9023624333129, 3055.98745234305, -808328.03243577, 0, 0, 0, 0, -808328.03243577, 0, 0, -21.5623798890875, 4022762.69447394, ]
  - [4350, 98.2524781449241, 3066.91618986234, -808328.62413581, 0, 0, 0, 0, -808328.62413581, 0, 0, 23.1954476414382, 4022573.3529409, ]
  - [4400, 98.2975359297136, 3068.32265260261, -808320.736954081, 0, 0, 0, 0, -808320.736954081, 0, 0, -17.4751846687295, 4022790.80821838, ]
  - [4450, 98.6129793475168, 3078.16910679198, -808321.258238575, 0, 0, 0, 0, -808321.258238575, 0, 0, 12.6207990356464, 4022660.30602054, ]
  - [4500, 98.5503615113137, 3076.21451328705, -808310.750316596, 0, 0, 0, 0, -808310.750316596, 0, 0, -12.9612372813172, 4022795.9816453, ]
  - [4550, 99.1835096100758, 3095.97800619162, -808322.297363249, 0, 0, 0, 0, -808322.297363249, 0, 0, 0.788067790642205, 4022756.67230195, ]
  - [4600, 98.6522308022346, 3079.39432700242, -808298.819145854, 0, 0, 0, 0, -808298.819145854, 0, 0, 3.46495430797994, 4022785.92680856, ]
  - [4650, 99.2224592362587, 3097.19380493161, -808309.264211394, 0, 0, 0, 0, -808309.264211394, 0, 0, -9.2927506106332, 4022812.70137236, ]
  - [4700, 99.3150225525263, 3100.0831359552, -808305.797404148, 0, 0, 0, 0, -808305.797404148, 0, 0, 7.42202637000785, 4022746.92323736, ]
  - [4750, 98.9428286718196, 3088.46523623339, -808288.803628551, 0, 0, 0, 0, -808288.803628551, 0, 0, -12.6513684144007, 4022893.92603279, ]
  - [4800, 99.3690049639033, 3101.7681777429, -808295.893021432, 0, 0, 0, 0, -808295.893021432, 0, 0, 16.5950865975508, 4022749.09370981, ]
  - [4850, 99.1495803143366, 3094.91891528239, -808284.860014569, 0, 0, 0, 0, -808284.860014569, 0, 0, -9.76389061733676, 4022909.59353042, ]
  - [4900, 99.5821998806141, 3108.42298130615, -808293.534289108, 0, 0, 0, 0, -808293.534289108, 0, 0, 6.94837821012117, 4022805.80002888, ]
  - [4950, 99.4095380045064, 3103.03340220133, -808284.559284684, 0, 0, 0, 0, -808284.559284684, 0, 0, 1.55983611409932, 4022863.73241115, ]
  - [5000, 99.5615349610805, 3107.77793318649, -808285.254525596, 0, 0, 0, 0, -808285.254525596, 0, 0, -9.33436834771326, 4022910.33474422, ]
  - [5050, 99.5511019026003, 3107.45226897357, -808281.548990422, 0, 0, 0, 0, -808281.548990422, 0, 0, 9.73691171613149, 4022821.96601332, ]
  - [5100, 99.6134409076064, 3109.39815886177, -808280.247896246, 0, 0, 0, 0, -808280.247896246, 0, 0, -9.37052950759141, 4022949.11183429, ]
  - [5150, 99.783712119068, 3114.71311421922, -808283.151282954, 0, 0, 0, 0, -808283.151282954, 0, 0, 10.0611446892208, 4022831.16326621, ]
  - [5200, 99.7118693657395, 3112.47056820443, -808278.881231926, 0, 0, 0, 0, -808278.881231926, 0, 0, -6.71454344546814, 4022950.10000826, ]
  - [5250, 99.7211136379542, 3112.75912487652, -808277.054176986, 0, 0, 0, 0, -808277.054176986, 0, 0, 3.58524701050132, 4022897.99036484, ]
  - [5300, 99.8487564936025, 3116.74345125586, -808279.173378315, 0, 0, 0, 0, -808279.173378315, 0, 0, -2.0308151539522, 4022914.93799035, ]
  - [5350, 99.9095207784088, 3118.64018681262, -808279.41295112, 0, 0, 0, 0, -808279.41295112, 0, 0, -4.62903251309302, 4022924.76841652, ]
  - [5400, 99.9091202605008, 3118.62768478846, -808278.325904897, 0, 0, 0, 0, -808278.325904897, 0, 0, 6.44562842544943, 4022875.89314348, ]
  - [5450, 99.9589746477596, 3120.18387177027, -808278.585289977, 0, 0, 0, 0, -808278.585289977, 0, 0, -11.9669889727207, 4022963.63175608, ]
  - [5500, 99.8555587925445, 3116.95578260004, -808274.213479307, 0, 0, 0, 0, -808274.213479307, 0, 0, 5.76568792167949, 4022887.62307011, ]
  - [5550, 99.9771499042917, 3120.75120594408, -808277.211869237, 0, 0, 0, 0, -808277.211869237, 0, 0, -3.45363437094342, 4022927.57471637, ]
  - [5600, 99.7793027493331, 3114.57547730988, -808270.356613791, 0, 0, 0, 0, -808270.356613791, 0, 0, 4.52029828477104, 4022903.26662868, ]
  - [5650, 99.9120994121597, 3118.7206779488, -808273.587054285, 0, 0, 0, 0, -808273.587054285, 0, 0, -3.57073516531144, 4022949.93288713, ]
  - [5700, 99.9927617689731, 3121.2385247522, -808275.679903972, 0, 0, 0, 0, -808275.679903972, 0, 0, 3.91920918250281, 4022902.71888906, ]
  - [5750, 99.7251517990713, 3112.88517464077, -808267.474793081, 0, 0, 0, 0, -808267.474793081, 0, 0, 2.55073087810058, 4022933.55167246, ]
  - [5800, 99.9983671727718, 3121.41349543982, -808274.821585053, 0, 0, 0, 0, -808274.821585053, 0, 0, -5.48036611851704, 4022935.96021757, ]
  - [5850, 100.084546799001, 3124.1035618474, -808277.135398848, 0, 0, 0, 0, -808277.135398848, 0, 0, 8.17006661902153, 4022899.72646388, ]
  - [5900, 99.8033702924035, 3115.32673711407, -808268.259868101, 0, 0, 0, 0, -808268.259868101, 0, 0, -12.7521635046696, 4022991.37944229, ]
  - [5950, 100.113901877811, 3125.01987020069, -808277.081549408, 0, 0, 0, 0, -808277.081549408, 0, 0, 18.0191129175873, 4022848.96399127, ]
  - [6000, 99.7496089755696, 3113.64859671396, -808265.915035189, 0, 0, 0, 0, -808265.915035189, 0, 0, -15.6017926103346, 4023015.3154302, ]
  - [6050, 100.062371868384, 3123.41137926837, -808275.24960067, 0, 0, 0, 0, -808275.24960067, 0, 0, 11.2432176598706, 4022863.15456143, ]
  - [6100, 99.9751020693886, 3120.6872835053, -808271.988064468, 0, 0, 0, 0, -808271.988064468, 0, 0, -5.65007394739292, 4022986.02260233, ]
  - [6150, 100.137735582367, 3125.76383081877, -808277.079935033, 0, 0, 0, 0, -808277.079935033, 0, 0, -2.5561521806651, 4022951.61279893, ]
  - [6200, 100.066629503911, 3123.54427984832, -808275.164344509, 0, 0, 0, 0, -808275.164344509, 0, 0, 6.80370547126391, 4022884.61482678, ]
  - [6250, 99.9563615713457, 3120.1023055186, -808271.42415462, 0, 0, 0, 0, -808271.42415462, 0, 0, -14.0661297402317, 4023010.40064189, ]
  - [6300, 100.093691956989, 3124.38902470414, -808275.610159643, 0, 0, 0, 0, -808275.610159643, 0, 0, 10.1530505117767, 4022867.73606136, ]
  - [6350, 99.9098011401536, 3118.64893820486, -808269.697976297, 0, 0, 0, 0, -808269.697976297, 0, 0, -9.75204207481903, 4022978.72103599, ]
  - [6400, 100.253594206298, 3129.38031659273, -808280.370992716, 0, 0, 0, 0, -808280.370992716, 0, 0, 5.24779754390425, 4022881.63857072, ]
  - [6450, 99.8472367094632, 3116.69601173403, -808267.923568663, 0, 0, 0, 0, -808267.923568663, 0, 0, -5.75839447476836, 4022952.22124605, ]
  - [6500, 99.8896134381591, 3118.01878626109, -808268.745298979, 0, 0, 0, 0, -808268.745298979, 0, 0, 3.31258865756795, 4022917.78412072, ]
  - [6550, 99.9444361483236, 3119.73005767684, -808270.123304679, 0, 0, 0, 0, -808270.123304679, 0, 0, 4.70870651716197, 4022895.20809281, ]
  - [6600, 100.117106629624, 3125.11990538969, -808275.571855964, 0, 0, 0, 0, -808275.571855964, 0, 0, -10.2249143855295, 4022992.10982101, ]
  - [6650, 100.030113016043, 3122.40443065619, -808273.36443692, 0, 0, 0, 0, -808273.36443692, 0, 0, 14.8984297924626, 4022862.21415083, ]
  - [6700, 99.8909091983783, 3118.05923295586, -808268.969384021, 0, 0, 0, 0, -808268.969384021, 0, 0, -16.670225152725, 4023018.7328544, ]
  - [6750, 99.8613033970515, 3117.1350983883, -808267.682945905, 0, 0, 0, 0, -808267.682945905, 0, 0, 18.6002399682163, 4022866.18509653, ]
  - [6800, 100.028894462892, 3122.36639395263, -808272.80909303, 0, 0, 0, 0, -808272.80909303, 0, 0, -12.2901970793504, 4022982.87048342, ]
  - [6850, 100.102492244961, 3124.66372256586, -808275.203846983, 0, 0, 0, 0, -808275.203846983, 0, 0, 7.158582885294, 4022900.35708997, ]
  - [6900, 99.9757313775749, 3120.7069271367, -808271.546260043, 0, 0, 0, 0, -808271.546260043, 0, 0, -3.80009799045724, 4022958.73772545, ]
  - [6950, 100.130242974954, 3125.52995174098, -808276.170567124, 0, 0, 0, 0, -808276.170567124, 0, 0, -5.26901196730408, 4022959.74681804, ]
  - [7000, 99.7945065452991, 3115.05005839807, -808265.808244881, 0, 0, 0, 0, -808265.808244881, 0, 0, 12.8690100183058, 4022885.68882002, ]
  - [7050, 100.213982551802, 3128.14385287424, -808278.393046491, 0, 0, 0, 0, -808278.393046491, 0, 0, -17.1838831577777, 4022987.27350759, ]
  - [7100, 99.9430805905902, 3119.6877444239, -808270.540681656, 0, 0, 0, 0, -808270.540681656, 0, 0, 17.9620844422813, 4022856.35950644, ]
  - [7150, 100.203443978531, 3127.81489505461, -808278.507645452, 0, 0, 0, 0, -808278.507645452, 0, 0, -20.0553082476185, 4023012.50965631, ]
  - [7200, 99.9082209001743, 3118.59961157546, -808269.211424367, 0, 0, 0, 0, -808269.211424367, 0, 0, 16.8646388308556, 4022858.7184403, ]
  - [7250, 100.231072255377, 3128.67730189825, -808278.93438209, 0, 0, 0, 0, -808278.93438209, 0, 0, -21.0073943789429, 4023017.50076903, ]
  - [7300, 99.8782237140808, 3117.66326007149, -808268.595609554, 0, 0, 0, 0, -808268.595609554, 0, 0, 20.0178900254782, 4022840.67089829, ]
  - [7350, 99.9531367039119, 3120.00164242766, -808270.713762086, 0, 0, 0, 0, -808270.713762086, 0, 0, -14.1207144847535, 4023004.06758845, ]
  - [7400, 100.173463470355, 3126.87906414588, -808277.648183917, 0, 0, 0, 0, -808277.648183917, 0, 0, 10.3293641326151, 4022888.49445686, ]
  - [7450, 99.9199614772756, 3118.9660895175, -808270.006944342, 0, 0, 0, 0, -808270.006944342, 0, 0, -12.0859710672899, 4022992.56411594, ]
  - [7500, 99.8518622783546, 3116.84039722321, -808267.685001416, 0, 0, 0, 0, -808267.685001416, 0, 0, 12.5891855588694, 4022883.36055727, ]
  - [7550, 99.9980573513281, 3121.40382447355, -808271.930054096, 0, 0, 0, 0, -808271.930054096, 0, 0, -0.696524237584537, 4022937.85033761, ]
  - [7600, 99.959692386414, 3120.2062757273, -808270.63767889, 0, 0, 0, 0, -808270.63767889, 0, 0, -5.04345971228052, 4022983.0250268, ]
  - [7650, 100.001045182791, 3121.49708857089, -808272.043864836, 0, 0, 0, 0, -808272.043864836, 0, 0, 13.2767161693925, 4022875.67680088, ]
  - [7700, 100.098984739299, 3124.55423702307, -808275.042645828, 0, 0, 0, 0, -808275.042645828, 0, 0, -17.3298858293472, 4023028.13727067, ]
  - [7750, 100.079327892332, 3123.94065553034, -808274.676947914, 0, 0, 0, 0, -808274.676947914, 0, 0, 14.0442723624929, 4022870.6151205, ]
  - [7800, 99.9363404680873, 3119.47735389517, -808270.642811612, 0, 0, 0, 0, -808270.642811612, 0, 0, -4.58935395440966, 4022973.2176382, ]
  - [7850, 99.7670518638134, 3114.19307027191, -808265.412408031, 0, 0, 0, 0, -808265.412408031, 0, 0, 4.94259294782283, 4022918.56985863, ]
  - [7900, 100.114439411872, 3125.0366491354, -808275.865618053, 0, 0, 0, 0, -808275.865618053, 0, 0, -3.48529726001366, 4022945.19743472, ]
  - [7950, 99.8092018534401, 3115.5087672195, -808266.584257279, 0, 0, 0, 0, -808266.584257279, 0, 0, 3.20607676602918, 4022942.00094777, ]
  - [8000, 100.272405521268, 3129.96750510465, -808280.321516644, 0, 0, 0, 0, -808280.321516644, 0, 0, -4.59266238321758, 4022927.3192447, ]
  - [8050, 100.08187273899, 3124.02009201442, -808274.687649911, 0, 0, 0, 0, -808274.687649911, 0, 0, -2.38042096227164, 4022956.14045604, ]
[...]
  - [24650, 99.897507899254, 3118.26520905876, -808268.587529563, 0, 0, 0, 0, -808268.587529563, 0, 0, 14.8168000686316, 4022851.49440695, ]
  - [24700, 100.021038308746, 3122.12116689275, -808272.349307416, 0, 0, 0, 0, -808272.349307416, 0, 0, -8.47914390778137, 4022969.33394434, ]
  - [24750, 100.089787854799, 3124.26715954163, -808274.662224439, 0, 0, 0, 0, -808274.662224439, 0, 0, 0.224732693749853, 4022914.37445895, ]
  - [24800, 99.8683467383876, 3117.35495378515, -808267.865091808, 0, 0, 0, 0, -808267.865091808, 0, 0, 7.12823862803689, 4022898.819844, ]
  - [24850, 100.036118837994, 3122.59190025412, -808273.017822914, 0, 0, 0, 0, -808273.017822914, 0, 0, -8.67311360746733, 4022970.23463446, ]
  - [24900, 99.994347332099, 3121.28801754173, -808271.817504556, 0, 0, 0, 0, -808271.817504556, 0, 0, 10.982799898524, 4022879.25769257, ]
  - [24950, 99.9564237110937, 3120.10424518875, -808270.970764461, 0, 0, 0, 0, -808270.970764461, 0, 0, -9.53214271937959, 4022977.10559995, ]
  - [25000, 100.084630484011, 3124.10617404524, -808274.377257673, 0, 0, 0, 0, -808274.377257673, 0, 0, 6.01209384768323, 4022895.00819342, ]
  - [25050, 100.068957132263, 3123.61693594019, -808274.335374355, 0, 0, 0, 0, -808274.335374355, 0, 0, 0.578043218766727, 4022921.51682425, ]
  - [25100, 99.8620994838105, 3117.15994795358, -808268.093065703, 0, 0, 0, 0, -808268.093065703, 0, 0, -3.18579197458231, 4022946.79737054, ]
  - [25150, 99.9859485801307, 3121.02585348365, -808271.481726077, 0, 0, 0, 0, -808271.481726077, 0, 0, 5.94822003496341, 4022910.46503894, ]
  - [25200, 99.9185276239151, 3118.92133229439, -808269.519892364, 0, 0, 0, 0, -808269.519892364, 0, 0, -1.75666223699672, 4022946.26139003, ]
  - [25250, 100.00619185272, 3121.6577400438, -808272.479744324, 0, 0, 0, 0, -808272.479744324, 0, 0, 1.46893385175118, 4022921.20968271, ]
  - [25300, 100.147516901358, 3126.06915121513, -808276.479864062, 0, 0, 0, 0, -808276.479864062, 0, 0, -3.50723928099769, 4022947.75360309, ]
  - [25350, 100.108596026294, 3124.85424993111, -808275.56303874, 0, 0, 0, 0, -808275.56303874, 0, 0, -3.53693060923443, 4022932.95179718, ]
  - [25400, 99.9405799036694, 3119.60968637033, -808270.229017931, 0, 0, 0, 0, -808270.229017931, 0, 0, 3.19724685697953, 4022914.56881194, ]
  - [25450, 99.9703307736338, 3120.53834920387, -808271.072729946, 0, 0, 0, 0, -808271.072729946, 0, 0, -4.1511054085979, 4022932.32357717, ]
  - [25500, 99.8753387081279, 3117.5732056359, -808268.245491425, 0, 0, 0, 0, -808268.245491425, 0, 0, 9.40361133591967, 4022889.98536536, ]
  - [25550, 99.9387804259201, 3119.55351631185, -808270.298136455, 0, 0, 0, 0, -808270.298136455, 0, 0, -7.97577351242087, 4022965.00816799, ]
  - [25600, 100.044085595434, 3122.84057975651, -808273.370952728, 0, 0, 0, 0, -808273.370952728, 0, 0, 10.6648106336711, 4022869.7582778, ]
  - [25650, 99.9543737781679, 3120.04025726095, -808271.03274385, 0, 0, 0, 0, -808271.03274385, 0, 0, -11.5001850884089, 4022985.04689972, ]
  - [25700, 100.006782784768, 3121.67618577769, -808272.268071605, 0, 0, 0, 0, -808272.268071605, 0, 0, 10.000800123892, 4022873.55611089, ]
  - [25750, 99.8998981041982, 3118.3398184567, -808268.79497463, 0, 0, 0, 0, -808268.79497463, 0, 0, -2.65706252628828, 4022941.52833151, ]
  - [25800, 100.200414170231, 3127.7203206652, -808277.835047023, 0, 0, 0, 0, -808277.835047023, 0, 0, -2.27921851412264, 4022930.14906684, ]
  - [25850, 99.7977215290369, 3115.15041297295, -808265.801831105, 0, 0, 0, 0, -808265.801831105, 0, 0, 7.5806134944446, 4022893.47605461, ]
  - [25900, 99.9970934156317, 3121.37373556334, -808272.016367733, 0, 0, 0, 0, -808272.016367733, 0, 0, -7.45133251692054, 4022972.57429361, ]
  - [25950, 100.154464327028, 3126.28601263855, -808276.327494741, 0, 0, 0, 0, -808276.327494741, 0, 0, 2.40021712737092, 4022895.60905133, ]
  - [26000, 99.8943576367114, 3118.16687473298, -808268.939151431, 0, 0, 0, 0, -808268.939151431, 0, 0, 4.03282410814986, 4022922.08774701, ]
  - [26050, 100.002341856545, 3121.53756378135, -808272.131502929, 0, 0, 0, 0, -808272.131502929, 0, 0, -11.1587172968005, 4022975.98157917, ]
  - [26100, 100.108930182235, 3124.86468049006, -808275.334376798, 0, 0, 0, 0, -808275.334376798, 0, 0, 10.1695945113996, 4022859.40904986, ]
  - [26150, 100.083408416372, 3124.06802763818, -808274.451143316, 0, 0, 0, 0, -808274.451143316, 0, 0, -13.2672050898527, 4022997.50287276, ]
  - [26200, 100.025647836732, 3122.26505167076, -808272.63130752, 0, 0, 0, 0, -808272.63130752, 0, 0, 2.66731061023225, 4022902.67641119, ]
  - [26250, 99.9203121549394, 3118.97703579616, -808269.611830691, 0, 0, 0, 0, -808269.611830691, 0, 0, 2.3081013493099, 4022933.01995955, ]
  - [26300, 100.10496796935, 3124.74100142288, -808275.097560651, 0, 0, 0, 0, -808275.097560651, 0, 0, -8.83894589106886, 4022965.17156214, ]
  - [26350, 99.934094645311, 3119.4072513353, -808270.065088454, 0, 0, 0, 0, -808270.065088454, 0, 0, 13.8135486237065, 4022859.99750737, ]
  - [26400, 100.061262589334, 3123.37675351703, -808273.741386037, 0, 0, 0, 0, -808273.741386037, 0, 0, -19.1172251028055, 4023023.35910346, ]
  - [26450, 100.036390146834, 3122.60036906317, -808273.120397714, 0, 0, 0, 0, -808273.120397714, 0, 0, 17.6609484747515, 4022827.12488902, ]
  - [26500, 100.076989596627, 3123.86766646085, -808274.425525386, 0, 0, 0, 0, -808274.425525386, 0, 0, -16.1709162279134, 4023012.11744537, ]
  - [26550, 99.8233966614151, 3115.95185310611, -808266.773695995, 0, 0, 0, 0, -808266.773695995, 0, 0, 14.904676915745, 4022861.88998871, ]
  - [26600, 99.9505061069043, 3119.91952927688, -808270.538462519, 0, 0, 0, 0, -808270.538462519, 0, 0, -1.19529640209927, 4022948.2602574, ]
  - [26650, 99.9479479837987, 3119.83967837321, -808270.748914862, 0, 0, 0, 0, -808270.748914862, 0, 0, -1.28096582290706, 4022932.64435583, ]
  - [26700, 99.9006348833254, 3118.36281675533, -808269.03183369, 0, 0, 0, 0, -808269.03183369, 0, 0, 7.59852890338089, 4022883.3618453, ]
  - [26750, 100.139553717784, 3125.82058326972, -808276.341975564, 0, 0, 0, 0, -808276.341975564, 0, 0, -15.3613055131493, 4022997.78386888, ]
  - [26800, 100.023285297165, 3122.19130583774, -808273.141255972, 0, 0, 0, 0, -808273.141255972, 0, 0, 17.5530045510841, 4022837.70471747, ]
  - [26850, 99.9759444830208, 3120.71357914747, -808271.61556212, 0, 0, 0, 0, -808271.61556212, 0, 0, -18.7723431806219, 4023009.52812093, ]
  - [26900, 100.051424265824, 3123.06965374484, -808274.159877557, 0, 0, 0, 0, -808274.159877557, 0, 0, 16.1543155363015, 4022835.02350458, ]
  - [26950, 99.889504622148, 3118.01538960797, -808268.97993667, 0, 0, 0, 0, -808268.97993667, 0, 0, -11.5755088583676, 4023003.62922496, ]
  - [27000, 100.095730165855, 3124.45264666957, -808275.010111196, 0, 0, 0, 0, -808275.010111196, 0, 0, 2.90350142922608, 4022890.57988288, ]
  - [27050, 100.010427823133, 3121.78996435492, -808272.503335289, 0, 0, 0, 0, -808272.503335289, 0, 0, 5.2902965252636, 4022913.23088514, ]
  - [27100, 100.003950095092, 3121.58776437607, -808272.371798828, 0, 0, 0, 0, -808272.371798828, 0, 0, -17.8254182467071, 4022986.71351876, ]
  - [27150, 100.01466606987, 3121.92225972068, -808272.596478693, 0, 0, 0, 0, -808272.596478693, 0, 0, 26.8250587270996, 4022813.27841377, ]
  - [27200, 100.023575357755, 3122.20035997598, -808272.8978123, 0, 0, 0, 0, -808272.8978123, 0, 0, -31.040958493675, 4023072.1131037, ]
  - [27250, 99.9647326551473, 3120.36360592468, -808270.954943091, 0, 0, 0, 0, -808270.954943091, 0, 0, 31.2419456992044, 4022771.53471444, ]
  - [27300, 99.8994026388348, 3118.32435268145, -808269.159706506, 0, 0, 0, 0, -808269.159706506, 0, 0, -28.2668580782158, 4023059.25132605, ]
  - [27350, 100.068940159558, 3123.61640614323, -808274.264931065, 0, 0, 0, 0, -808274.264931065, 0, 0, 24.4104631538198, 4022825.76104416, ]
  - [27400, 99.9301160296885, 3119.2830602625, -808269.993135509, 0, 0, 0, 0, -808269.993135509, 0, 0, -17.0967384015038, 4023015.78768078, ]
  - [27450, 100.1129332782, 3124.98963570805, -808275.523672027, 0, 0, 0, 0, -808275.523672027, 0, 0, 9.02361714287747, 4022890.75015957, ]
  - [27500, 99.936321789832, 3119.47677086007, -808270.130215088, 0, 0, 0, 0, -808270.130215088, 0, 0, 0.412989554583258, 4022925.45633489, ]
  - [27550, 100.130208762915, 3125.52888382434, -808275.892425325, 0, 0, 0, 0, -808275.892425325, 0, 0, -8.49869159903869, 4022979.00796668, ]
  - [27600, 99.7382355841801, 3113.29358034343, -808264.205802063, 0, 0, 0, 0, -808264.205802063, 0, 0, 19.3099294988094, 4022850.44845004, ]
  - [27650, 100.128513165765, 3125.47595636185, -808275.877943953, 0, 0, 0, 0, -808275.877943953, 0, 0, -19.9927969294434, 4023034.94198616, ]
  - [27700, 99.9205736672864, 3118.98519881113, -808269.764904332, 0, 0, 0, 0, -808269.764904332, 0, 0, 22.821225445208, 4022832.02479603, ]
  - [27750, 100.012950882521, 3121.86872075711, -808272.577041023, 0, 0, 0, 0, -808272.577041023, 0, 0, -19.052669656256, 4023020.87096111, ]
  - [27800, 99.8854012624248, 3117.8873046924, -808268.645246611, 0, 0, 0, 0, -808268.645246611, 0, 0, 9.43714400300201, 4022893.76488326, ]
  - [27850, 100.055594041731, 3123.199811818, -808273.550279763, 0, 0, 0, 0, -808273.550279763, 0, 0, -0.413827828358887, 4022930.72425249, ]
  - [27900, 99.8250262186714, 3116.00271915678, -808266.739004017, 0, 0, 0, 0, -808266.739004017, 0, 0, -3.13278098735941, 4022955.67633336, ]
  - [27950, 100.156711522697, 3126.35615805279, -808276.798679403, 0, 0, 0, 0, -808276.798679403, 0, 0, 4.25597754750315, 4022900.3284244, ]
  - [28000, 100.041273962851, 3122.75281564459, -808273.361507682, 0, 0, 0, 0, -808273.361507682, 0, 0, -4.29765918665055, 4022961.98057219, ]
  - [28050, 100.174643766121, 3126.91590665878, -808277.577944231, 0, 0, 0, 0, -808277.577944231, 0, 0, -4.68481093867125, 4022940.06919798, ]
  - [28100, 99.9720552377015, 3120.59217773693, -808271.317216466, 0, 0, 0, 0, -808271.317216466, 0, 0, 2.99932186275792, 4022915.08275441, ]
  - [28150, 99.9680716526384, 3120.4678315448, -808271.049646589, 0, 0, 0, 0, -808271.049646589, 0, 0, -6.9362859114903, 4022956.09706176, ]
  - [28200, 100.13091846142, 3125.55103681096, -808276.547554221, 0, 0, 0, 0, -808276.547554221, 0, 0, 8.24489916013718, 4022904.81953454, ]
  - [28250, 99.8396520811153, 3116.45926025545, -808267.38287975, 0, 0, 0, 0, -808267.38287975, 0, 0, -8.00580285185171, 4022971.34356957, ]
  - [28300, 100.101279853259, 3124.62587818972, -808275.183964477, 0, 0, 0, 0, -808275.183964477, 0, 0, 6.84824682731741, 4022893.52653574, ]
  - [28350, 99.9600291191485, 3120.21678671995, -808271.035193938, 0, 0, 0, 0, -808271.035193938, 0, 0, -6.09403681030082, 4022971.51855598, ]
  - [28400, 100.136153628244, 3125.714450683, -808276.419275154, 0, 0, 0, 0, -808276.419275154, 0, 0, 2.4558956955464, 4022897.30271592, ]
  - [28450, 100.033313769696, 3122.50434104403, -808273.630280528, 0, 0, 0, 0, -808273.630280528, 0, 0, 0.776722942882404, 4022932.86665619, ]
  - [28500, 99.9438782454123, 3119.71264293572, -808270.996873466, 0, 0, 0, 0, -808270.996873466, 0, 0, -5.59561070117496, 4022944.94962516, ]
  - [28550, 99.7430780213088, 3113.44473529758, -808264.536180193, 0, 0, 0, 0, -808264.536180193, 0, 0, 16.4437263560021, 4022857.07379361, ]
  - [28600, 100.092353385967, 3124.34724168537, -808274.8980123, 0, 0, 0, 0, -808274.8980123, 0, 0, -20.3571448450013, 4023042.2905596, ]
  - [28650, 100.098999263618, 3124.55469039452, -808275.237330748, 0, 0, 0, 0, -808275.237330748, 0, 0, 18.0329434374546, 4022820.39386658, ]
  - [28700, 100.077138518038, 3123.87231498977, -808274.284077429, 0, 0, 0, 0, -808274.284077429, 0, 0, -16.6872713645297, 4023005.84181729, ]
  - [28750, 99.9412132331268, 3119.62945552428, -808270.255879642, 0, 0, 0, 0, -808270.255879642, 0, 0, 5.77044845708398, 4022887.91416719, ]
  - [28800, 99.9501054380799, 3119.90702254191, -808270.512421827, 0, 0, 0, 0, -808270.512421827, 0, 0, 5.03466439281868, 4022909.09082417, ]
  - [28850, 100.002399279731, 3121.5393562257, -808272.328257947, 0, 0, 0, 0, -808272.328257947, 0, 0, -10.1155617303483, 4022970.80828512, ]
  - [28900, 100.013956329082, 3121.9001054142, -808272.962023561, 0, 0, 0, 0, -808272.962023561, 0, 0, 14.3427538236728, 4022857.81300424, ]
  - [28950, 100.046765208095, 3122.9242229135, -808273.803305018, 0, 0, 0, 0, -808273.803305018, 0, 0, -17.2594059560868, 4023020.52647858, ]
  - [29000, 99.9082129219521, 3118.59936253809, -808269.597490855, 0, 0, 0, 0, -808269.597490855, 0, 0, 13.5591979274055, 4022858.86401494, ]
  - [29050, 100.061979090087, 3123.39911883342, -808273.962665258, 0, 0, 0, 0, -808273.962665258, 0, 0, -6.95745199804672, 4022962.6935812, ]
  - [29100, 100.060156264185, 3123.34221997064, -808274.072156711, 0, 0, 0, 0, -808274.072156711, 0, 0, 1.41009111651548, 4022900.2549426, ]
  - [29150, 99.9780556612095, 3120.77947882439, -808271.345501825, 0, 0, 0, 0, -808271.345501825, 0, 0, 2.30882325721278, 4022920.04487204, ]
  - [29200, 100.012633774557, 3121.8588223447, -808272.321472378, 0, 0, 0, 0, -808272.321472378, 0, 0, -5.22387250549497, 4022970.3490644, ]
  - [29250, 99.98741988323, 3121.07177968705, -808271.673023946, 0, 0, 0, 0, -808271.673023946, 0, 0, 11.1303925914792, 4022880.64843923, ]
  - [29300, 99.9393931610532, 3119.57264262129, -808270.111697769, 0, 0, 0, 0, -808270.111697769, 0, 0, -11.0506445675528, 4022987.32368238, ]
  - [29350, 99.8914100237569, 3118.07486604208, -808268.798624407, 0, 0, 0, 0, -808268.798624407, 0, 0, 9.9718652389888, 4022875.83981473, ]
  - [29400, 100.032731459922, 3122.48616445138, -808272.812091399, 0, 0, 0, 0, -808272.812091399, 0, 0, -5.4371810052303, 4022972.60401143, ]
  - [29450, 100.09021334557, 3124.28044108486, -808274.979109482, 0, 0, 0, 0, -808274.979109482, 0, 0, 2.11943461895269, 4022908.76912435, ]
  - [29500, 99.9994629666851, 3121.44770025742, -808272.101329814, 0, 0, 0, 0, -808272.101329814, 0, 0, 0.45258617588026, 4022927.84046215, ]
  - [29550, 100.076209582944, 3123.84331861093, -808274.602400945, 0, 0, 0, 0, -808274.602400945, 0, 0, -4.92375529922453, 4022951.17468972, ]
  - [29600, 99.8916161645154, 3118.0813006526, -808268.947941635, 0, 0, 0, 0, -808268.947941635, 0, 0, 10.5635690305062, 4022883.78263657, ]
  - [29650, 99.899763942869, 3118.33563065848, -808268.826022424, 0, 0, 0, 0, -808268.826022424, 0, 0, -14.5145006025954, 4023013.08502633, ]
  - [29700, 99.9712312140438, 3120.56645613128, -808271.016314391, 0, 0, 0, 0, -808271.016314391, 0, 0, 20.9350621594535, 4022840.37295145, ]
  - [29750, 100.072744894039, 3123.73516957798, -808273.997092354, 0, 0, 0, 0, -808273.997092354, 0, 0, -19.0409756517453, 4023019.03824108, ]
  - [29800, 100.154286233504, 3126.2804535125, -808276.422709287, 0, 0, 0, 0, -808276.422709287, 0, 0, 11.2491195892355, 4022872.90873274, ]
  - [29850, 99.8104260070242, 3115.54697873861, -808265.946996535, 0, 0, 0, 0, -808265.946996535, 0, 0, -4.42415514623553, 4022971.80745977, ]
  - [29900, 100.166576041507, 3126.66407550193, -808276.814243051, 0, 0, 0, 0, -808276.814243051, 0, 0, -1.65332267231581, 4022944.13500129, ]
  - [29950, 99.869522318571, 3117.39164910281, -808268.3023108, 0, 0, 0, 0, -808268.3023108, 0, 0, 7.31759284263508, 4022909.09813607, ]
  - [30000, 100.113267728907, 3125.00007546802, -808275.707876549, 0, 0, 0, 0, -808275.707876549, 0, 0, -13.8548536153635, 4022989.96667775, ]
  - [30050, 100.128181367185, 3125.4655993871, -808276.037262546, 0, 0, 0, 0, -808276.037262546, 0, 0, 9.60529758369027, 4022889.14145799, ]
  - [30100, 100.132762526941, 3125.6085986609, -808276.00957949, 0, 0, 0, 0, -808276.00957949, 0, 0, -16.9302150790141, 4023001.50998362, ]
  - [30150, 99.985549199785, 3121.01338696809, -808271.501377757, 0, 0, 0, 0, -808271.501377757, 0, 0, 14.706730939874, 4022863.72674563, ]
  - [30200, 99.8964327914794, 3118.23164995163, -808268.863571295, 0, 0, 0, 0, -808268.863571295, 0, 0, -11.3903070234388, 4023002.07659654, ]
  - [30250, 99.8722219216619, 3117.47591625395, -808268.093067398, 0, 0, 0, 0, -808268.093067398, 0, 0, 14.5736908107559, 4022883.31543579, ]
  - [30300, 100.086809761601, 3124.17419942078, -808274.858914273, 0, 0, 0, 0, -808274.858914273, 0, 0, -6.23230820063324, 4022959.14965433, ]
  - [30350, 99.8865691698586, 3117.92376050791, -808268.863216617, 0, 0, 0, 0, -808268.863216617, 0, 0, 1.05443658880825, 4022925.12921732, ]
  - [30400, 100.048695767957, 3122.98448465353, -808273.937476023, 0, 0, 0, 0, -808273.937476023, 0, 0, -0.107248939172488, 4022928.69579928, ]
  - [30450, 100.053409048364, 3123.1316080265, -808274.013415111, 0, 0, 0, 0, -808274.013415111, 0, 0, -0.863406912844879, 4022940.10371096, ]
  - [30500, 100.108788653051, 3124.86026270688, -808275.486031941, 0, 0, 0, 0, -808275.486031941, 0, 0, -7.04975364573805, 4022950.1884185, ]
  - [30550, 99.9017740986502, 3118.39837695685, -808269.445917872, 0, 0, 0, 0, -808269.445917872, 0, 0, 10.6860823450392, 4022900.20568014, ]
  - [30600, 100.038571843309, 3122.66846994333, -808273.655722044, 0, 0, 0, 0, -808273.655722044, 0, 0, -10.2959467773907, 4022989.19195605, ]
  - [30650, 99.8266961455133, 3116.05484532972, -808267.075199517, 0, 0, 0, 0, -808267.075199517, 0, 0, 12.9554300487167, 4022873.69658169, ]
  - [30700, 99.9779695364704, 3120.77679047127, -808271.644563548, 0, 0, 0, 0, -808271.644563548, 0, 0, -7.39841658671432, 4022965.30508715, ]
  - [30750, 100.047018724109, 3122.9321363258, -808273.520462036, 0, 0, 0, 0, -808273.520462036, 0, 0, 1.42535213696472, 4022926.86134321, ]
  - [30800, 100.002829093786, 3121.55277271866, -808272.019344675, 0, 0, 0, 0, -808272.019344675, 0, 0, -0.987466837759818, 4022937.07677268, ]
  - [30850, 99.9728658341283, 3120.61748021633, -808271.020107372, 0, 0, 0, 0, -808271.020107372, 0, 0, -4.18815373572228, 4022961.06695407, ]
  - [30900, 100.137405521974, 3125.7535281009, -808276.130682774, 0, 0, 0, 0, -808276.130682774, 0, 0, 7.60940776801658, 4022890.9637084, ]
  - [30950, 99.8836359478499, 3117.83220102527, -808268.599716751, 0, 0, 0, 0, -808268.599716751, 0, 0, -7.88458301842004, 4022975.9645591, ]
  - [31000, 100.196079256918, 3127.5850078866, -808278.263477052, 0, 0, 0, 0, -808278.263477052, 0, 0, 2.18174369938314, 4022907.10198677, ]
  - [31050, 99.7964705613078, 3115.11136445984, -808266.232518228, 0, 0, 0, 0, -808266.232518228, 0, 0, 2.50913368020321, 4022929.49429083, ]
  - [31100, 100.097451629979, 3124.50638156044, -808274.829396096, 0, 0, 0, 0, -808274.829396096, 0, 0, -10.3392569170635, 4023010.71763956, ]
  - [31150, 100.054163979529, 3123.15517293454, -808273.853905524, 0, 0, 0, 0, -808273.853905524, 0, 0, 14.671191686765, 4022848.76922138, ]
  - [31200, 99.7560570711864, 3113.84987172721, -808264.686763115, 0, 0, 0, 0, -808264.686763115, 0, 0, -10.8106137896336, 4023021.27458681, ]
  - [31250, 99.9876511534211, 3121.07899870388, -808271.466243006, 0, 0, 0, 0, -808271.466243006, 0, 0, 10.6648587955198, 4022895.91376124, ]
  - [31300, 99.8948325401756, 3118.18169867585, -808268.784870917, 0, 0, 0, 0, -808268.784870917, 0, 0, 3.65128721669877, 4022910.7554122, ]
  - [31350, 100.1493456588, 3126.1262352288, -808276.272408157, 0, 0, 0, 0, -808276.272408157, 0, 0, -17.3325557428047, 4023016.31677178, ]
  - [31400, 99.8942630939659, 3118.16392361478, -808268.925946211, 0, 0, 0, 0, -808268.925946211, 0, 0, 27.9855203402065, 4022816.78021459, ]
  - [31450, 100.116453453878, 3125.0995167409, -808275.303678923, 0, 0, 0, 0, -808275.303678923, 0, 0, -33.3215043284835, 4023087.84853414, ]
  - [31500, 99.9529006171118, 3119.99427306209, -808270.594726742, 0, 0, 0, 0, -808270.594726742, 0, 0, 28.2657690035858, 4022803.93598716, ]
  - [31550, 99.9106450272955, 3118.6752798421, -808269.568394517, 0, 0, 0, 0, -808269.568394517, 0, 0, -16.0732233835457, 4023025.12736528, ]
  - [31600, 100.000177807326, 3121.470013754, -808272.394103543, 0, 0, 0, 0, -808272.394103543, 0, 0, 7.06682063945837, 4022907.19975205, ]
  - [31650, 99.977285432201, 3120.7554363996, -808271.615289484, 0, 0, 0, 0, -808271.615289484, 0, 0, 2.67088365539087, 4022933.02119192, ]
  ...